<?xml version="1.0"?>
<VTKFile type="PolyData" version="0.1" byte_order="LittleEndian">
<PolyData>
<Piece NumberOfPoints="2316" NumberOfVerts="2316" NumberOfLines="0" NumberOfStrips="0" NumberOfPolys="0">
<Points>
  <DataArray type="Float32" Name="Points" NumberOfComponents="3" format="ascii">19.4862 19.9031 0 19.4862 19.9094 0 19.4863 19.9156 0 19.4865 19.9219 0 19.4867 19.9281 0 19.487 19.9344 0 19.4874 19.9406 0 19.4878 19.9469 0 19.4884 19.9531 0 19.489 19.9594 0 19.4898 19.9656 0 19.4907 19.9719 0 19.4917 19.9781 0 19.4999 19.9801 0 19.493 19.9844 0 19.4995 19.9844 0 19.4877 19.9906 0 19.4944 19.9906 0 19.4992 19.9906 0 19.4997 19.9932 0 19.4981 19.9911 0 19.4909 19.9969 0 19.4962 19.9969 0 19.4993 19.9969 0 19.4998 19.9984 0 19.4983 19.9969 0 19.4945 19.9969 0 19.4945 20.0031 0 19.4983 20.0031 0 19.4998 20.0016 0 19.4993 20.0031 0 19.4962 20.0031 0 19.4909 20.0031 0 19.4981 20.0089 0 19.4997 20.0068 0 19.4992 20.0094 0 19.4944 20.0094 0 19.4877 20.0094 0 19.4995 20.0156 0 19.493 20.0156 0 19.4999 20.0199 0 19.4917 20.0219 0 19.4907 20.0281 0 19.4898 20.0344 0 19.489 20.0406 0 19.4884 20.0469 0 19.4878 20.0531 0 19.4874 20.0594 0 19.487 20.0656 0 19.4867 20.0719 0 19.4865 20.0781 0 19.4863 20.0844 0 19.4862 20.0906 0 19.4862 20.0969 0 19.5326 19.9406 0 19.531 19.9469 0 19.5295 19.9531 0 19.5282 19.9594 0 19.525 19.9656 0 19.527 19.9656 0 19.5436 19.9656 0 19.5483 19.9684 0 19.5466 19.9667 0 19.5466 19.9666 0 19.5458 19.9664 0 19.525 19.9719 0 19.5259 19.9719 0 19.5375 19.9719 0 19.5404 19.9719 0 19.5397 19.9719 0 19.5391 19.9719 0 19.525 19.9781 0 19.525 19.9781 0 19.5252 19.977 0 19.525 19.9801 0 19.5325 19.9781 0 19.5352 19.9783 0 19.5335 19.9781 0 19.5332 19.9781 0 19.5316 19.9781 0 19.525 19.9844 0 19.525 19.9844 0 19.525 19.9844 0 19.5288 19.9844 0 19.5293 19.9844 0 19.5291 19.9844 0 19.528 19.9844 0 19.5265 19.9828 0 19.525 19.9859 0 19.525 19.9906 0 19.525 19.9906 0 19.525 19.9906 0 19.525 19.9906 0 19.5264 19.9906 0 19.5265 19.9906 0 19.5261 19.99 0 19.525 19.9932 0 19.5253 19.9879 0 19.525 19.9911 0 19.525 19.9906 0 19.525 19.9969 0 19.525 19.9969 0 19.525 19.9969 0 19.525 19.9969 0 19.5127 19.9969 0 19.5375 19.9969 0 19.5253 19.9953 0 19.525 19.9984 0 19.525 19.9969 0 19.525 19.9969 0 19.525 19.9969 0 19.525 20.0031 0 19.525 20.0031 0 19.525 20.0031 0 19.5006 20.0024 0 19.5256 20.0031 0 19.5127 20.0031 0 19.5375 20.0031 0 19.525 20.0031 0 19.525 20.0031 0 19.525 20.0031 0 19.525 20.0031 0 19.525 20.0094 0 19.525 20.0089 0 19.5253 20.0121 0 19.525 20.0068 0 19.5261 20.01 0 19.5032 20.0081 0 19.5276 20.0094 0 19.5031 20.0081 0 19.5275 20.0094 0 19.525 20.0094 0 19.525 20.0094 0 19.525 20.0094 0 19.525 20.0094 0 19.525 20.0141 0 19.5265 20.0172 0 19.528 20.0156 0 19.5291 20.0156 0 19.5093 20.0143 0 19.5316 20.0156 0 19.508 20.0142 0 19.5305 20.0156 0 19.525 20.0156 0 19.525 20.0156 0 19.525 20.0156 0 19.5316 20.0219 0 19.5332 20.0219 0 19.5335 20.0219 0 19.5316 20.0214 0 19.5154 20.0204 0 19.5348 20.0219 0 19.525 20.0199 0 19.5252 20.023 0 19.525 20.0219 0 19.525 20.0219 0 19.5391 20.0281 0 19.5397 20.0281 0 19.5404 20.0281 0 19.5252 20.0266 0 19.5404 20.0281 0 19.5259 20.0281 0 19.525 20.0281 0 19.5458 20.0336 0 19.5466 20.0334 0 19.5466 20.0333 0 19.547 20.0314 0 19.527 20.0344 0 19.525 20.0344 0 19.5282 20.0406 0 19.5295 20.0469 0 19.531 20.0531 0 19.5326 20.0594 0 19.5957 19.955 0 19.5956 19.9547 0 19.5954 19.9547 0 19.5845 19.9594 0 19.5844 19.9594 0 19.5832 19.9594 0 19.5625 19.9683 0 19.5771 19.9636 0 19.575 19.9667 0 19.5767 19.9635 0 19.575 19.9666 0 19.5765 19.9633 0 19.575 19.9664 0 19.5755 19.9627 0 19.575 19.9659 0 19.575 19.9744 0 19.575 19.9719 0 19.575 19.9719 0 19.575 19.9719 0 19.575 19.9719 0 19.575 19.9781 0 19.575 19.9781 0 19.575 19.9781 0 19.575 19.9781 0 19.575 19.9781 0 19.575 19.9781 0 19.575 19.9781 0 19.575 19.9781 0 19.575 19.9844 0 19.575 19.9844 0 19.575 19.9844 0 19.575 19.9844 0 19.575 19.9853 0 19.575 19.9844 0 19.575 19.9844 0 19.575 19.9844 0 19.575 19.9844 0 19.575 19.9844 0 19.575 19.9906 0 19.575 19.9906 0 19.575 19.9906 0 19.575 19.9906 0 19.575 19.9906 0 19.575 19.9906 0 19.575 19.9906 0 19.575 19.9906 0 19.575 19.9906 0 19.575 19.9906 0 19.575 19.9906 0 19.575 19.9906 0 19.575 19.9906 0 19.575 19.9969 0 19.575 19.9969 0 19.575 19.9969 0 19.575 19.9969 0 19.575 19.9969 0 19.575 19.9969 0 19.575 19.9969 0 19.575 19.9969 0 19.575 19.9969 0 19.575 19.9969 0 19.575 19.9969 0 19.575 19.9969 0 19.575 19.9969 0 19.575 20.0031 0 19.575 20.0031 0 19.575 20.0031 0 19.575 20.0031 0 19.575 20.0031 0 19.575 20.0031 0 19.575 20.0031 0 19.575 20.0031 0 19.575 20.0031 0 19.575 20.0031 0 19.575 20.0031 0 19.575 20.0031 0 19.575 20.0031 0 19.575 20.0094 0 19.575 20.0094 0 19.575 20.0094 0 19.575 20.0094 0 19.575 20.0094 0 19.575 20.0094 0 19.575 20.0094 0 19.575 20.0094 0 19.575 20.0094 0 19.575 20.0094 0 19.575 20.0094 0 19.575 20.0094 0 19.575 20.0094 0 19.575 20.0156 0 19.575 20.0156 0 19.575 20.0156 0 19.575 20.0156 0 19.575 20.0156 0 19.575 20.0147 0 19.5729 20.0178 0 19.575 20.0156 0 19.575 20.0156 0 19.575 20.0156 0 19.575 20.0156 0 19.575 20.0219 0 19.575 20.0219 0 19.575 20.0219 0 19.575 20.0219 0 19.575 20.0219 0 19.5631 20.0217 0 19.575 20.0219 0 19.575 20.0219 0 19.575 20.0219 0 19.575 20.0281 0 19.575 20.0281 0 19.575 20.0281 0 19.575 20.0281 0 19.5625 20.0281 0 19.575 20.0341 0 19.5755 20.0373 0 19.575 20.0336 0 19.5765 20.0367 0 19.575 20.0334 0 19.5767 20.0365 0 19.5544 20.0339 0 19.5794 20.0344 0 19.5625 20.0317 0 19.5832 20.0406 0 19.5844 20.0406 0 19.5845 20.0406 0 19.5794 20.0391 0 19.5954 20.0453 0 19.5956 20.0453 0 19.5957 20.045 0 19.636 19.9492 0 19.6421 19.9483 0 19.6349 19.9491 0 19.611 19.9539 0 19.636 19.9531 0 19.63 19.9516 0 19.625 19.9547 0 19.6099 19.9538 0 19.6349 19.9531 0 19.625 19.9594 0 19.625 19.9594 0 19.625 19.9594 0 19.625 19.9656 0 19.625 19.9656 0 19.625 19.9656 0 19.625 19.9719 0 19.625 19.9719 0 19.625 19.9719 0 19.625 19.9719 0 19.625 19.9781 0 19.625 19.9781 0 19.625 19.9781 0 19.625 19.9781 0 19.625 19.9781 0 19.625 19.9781 0 19.625 19.9844 0 19.625 19.9844 0 19.625 19.9844 0 19.625 19.9844 0 19.625 19.9844 0 19.625 19.9844 0 19.625 19.9906 0 19.625 19.9906 0 19.625 19.9906 0 19.625 19.9906 0 19.625 19.9906 0 19.625 19.9906 0 19.625 19.9906 0 19.625 19.9906 0 19.625 19.9969 0 19.625 19.9969 0 19.625 19.9969 0 19.625 19.9969 0 19.625 19.9969 0 19.625 19.9969 0 19.625 19.9969 0 19.625 19.9969 0 19.625 20.0031 0 19.625 20.0031 0 19.625 20.0031 0 19.625 20.0031 0 19.625 20.0031 0 19.625 20.0031 0 19.625 20.0031 0 19.625 20.0031 0 19.625 20.0094 0 19.625 20.0094 0 19.625 20.0094 0 19.625 20.0094 0 19.625 20.0094 0 19.625 20.0094 0 19.625 20.0094 0 19.625 20.0094 0 19.625 20.0156 0 19.625 20.0156 0 19.625 20.0156 0 19.625 20.0156 0 19.625 20.0156 0 19.625 20.0156 0 19.625 20.0219 0 19.625 20.0219 0 19.625 20.0219 0 19.625 20.0219 0 19.625 20.0219 0 19.625 20.0219 0 19.625 20.0281 0 19.625 20.0281 0 19.625 20.0281 0 19.625 20.0281 0 19.625 20.0344 0 19.625 20.0344 0 19.625 20.0344 0 19.625 20.0406 0 19.625 20.0406 0 19.625 20.0406 0 19.6099 20.0462 0 19.6349 20.0469 0 19.625 20.0453 0 19.63 20.0484 0 19.611 20.0461 0 19.636 20.0469 0 19.6349 20.0509 0 19.6421 20.0517 0 19.636 20.0508 0 19.6913 19.9435 0 19.6911 19.9435 0 19.6691 19.9475 0 19.6663 19.9475 0 19.6913 19.9469 0 19.6911 19.9469 0 19.675 19.9531 0 19.675 19.9531 0 19.675 19.9531 0 19.675 19.9594 0 19.675 19.9594 0 19.675 19.9594 0 19.675 19.9656 0 19.675 19.9656 0 19.675 19.9656 0 19.675 19.9719 0 19.675 19.9719 0 19.675 19.9719 0 19.675 19.9781 0 19.675 19.9781 0 19.675 19.9781 0 19.675 19.9781 0 19.675 19.9844 0 19.675 19.9844 0 19.675 19.9844 0 19.675 19.9844 0 19.675 19.9844 0 19.675 19.9844 0 19.675 19.9906 0 19.675 19.9906 0 19.675 19.9906 0 19.675 19.9906 0 19.675 19.9906 0 19.675 19.9906 0 19.675 19.9906 0 19.675 19.9969 0 19.675 19.9969 0 19.675 19.9969 0 19.675 19.9969 0 19.675 19.9969 0 19.675 19.9969 0 19.675 19.9969 0 19.675 19.9969 0 19.675 20.0031 0 19.675 20.0031 0 19.675 20.0031 0 19.675 20.0031 0 19.675 20.0031 0 19.675 20.0031 0 19.675 20.0031 0 19.675 20.0031 0 19.675 20.0094 0 19.675 20.0094 0 19.675 20.0094 0 19.675 20.0094 0 19.675 20.0094 0 19.675 20.0094 0 19.675 20.0094 0 19.675 20.0156 0 19.675 20.0156 0 19.675 20.0156 0 19.675 20.0156 0 19.675 20.0156 0 19.675 20.0156 0 19.675 20.0219 0 19.675 20.0219 0 19.675 20.0219 0 19.675 20.0219 0 19.675 20.0281 0 19.675 20.0281 0 19.675 20.0281 0 19.675 20.0344 0 19.675 20.0344 0 19.675 20.0344 0 19.675 20.0406 0 19.675 20.0406 0 19.675 20.0406 0 19.675 20.0469 0 19.675 20.0469 0 19.675 20.0469 0 19.6911 20.0531 0 19.6663 20.0525 0 19.6913 20.0531 0 19.6691 20.0525 0 19.6911 20.0565 0 19.6913 20.0565 0 19.725 19.9426 0 19.725 19.9426 0 19.725 19.9469 0 19.725 19.9469 0 19.725 19.9469 0 19.725 19.9531 0 19.725 19.9531 0 19.725 19.9531 0 19.725 19.9594 0 19.725 19.9594 0 19.725 19.9594 0 19.725 19.9656 0 19.725 19.9656 0 19.725 19.9656 0 19.725 19.9719 0 19.725 19.9719 0 19.725 19.9719 0 19.725 19.9781 0 19.725 19.9781 0 19.725 19.9781 0 19.725 19.9781 0 19.725 19.9844 0 19.725 19.9844 0 19.725 19.9844 0 19.725 19.9844 0 19.725 19.9844 0 19.725 19.9844 0 19.725 19.9906 0 19.725 19.9906 0 19.725 19.9906 0 19.725 19.9906 0 19.725 19.9906 0 19.725 19.9906 0 19.725 19.9969 0 19.725 19.9969 0 19.725 19.9969 0 19.725 19.9969 0 19.725 19.9969 0 19.725 19.9969 0 19.725 20.0031 0 19.725 20.0031 0 19.725 20.0031 0 19.725 20.0031 0 19.725 20.0031 0 19.725 20.0031 0 19.725 20.0094 0 19.725 20.0094 0 19.725 20.0094 0 19.725 20.0094 0 19.725 20.0094 0 19.725 20.0094 0 19.725 20.0156 0 19.725 20.0156 0 19.725 20.0156 0 19.725 20.0156 0 19.725 20.0156 0 19.725 20.0156 0 19.725 20.0219 0 19.725 20.0219 0 19.725 20.0219 0 19.725 20.0219 0 19.725 20.0281 0 19.725 20.0281 0 19.725 20.0281 0 19.725 20.0344 0 19.725 20.0344 0 19.725 20.0344 0 19.725 20.0406 0 19.725 20.0406 0 19.725 20.0406 0 19.725 20.0469 0 19.725 20.0469 0 19.725 20.0469 0 19.725 20.0531 0 19.725 20.0531 0 19.725 20.0531 0 19.725 20.0574 0 19.725 20.0574 0 19.
[...]
<PointData Scalars="w">
  <DataArray type="Float32" Name="w" NumberOfComponents="1" format="ascii">2.07832e-13 2.7297e-13 3.56813e-13 4.6341e-13 5.99693e-13 7.803e-13 1.03634e-12 1.43137e-12 2.09032e-12 3.23077e-12 5.06986e-12 7.42661e-12 1.03029e-11 1.37599e-11 1.78624e-11 2.41636e-10 1.73001e-14 6.23019e-11 2.81169e-09 2.33357e-10 4.31256e-13 2.83257e-14 1.40731e-10 2.68828e-08 2.1575e-08 7.14184e-10 9.47396e-14 9.47396e-14 7.14184e-10 2.1575e-08 2.68828e-08 1.40731e-10 2.83257e-14 4.31256e-13 2.33357e-10 2.81169e-09 6.23019e-11 1.73001e-14 2.41636e-10 1.78624e-11 1.37599e-11 1.03029e-11 7.42661e-12 5.06986e-12 3.23077e-12 2.09032e-12 1.43137e-12 1.03634e-12 7.803e-13 5.99693e-13 4.6341e-13 3.56813e-13 2.7297e-13 2.07832e-13 1.3449e-14 1.90614e-14 2.4295e-14 3.42416e-14 1.38089e-14 7.95018e-14 1.43114e-14 7.03301e-12 4.94751e-06 2.45467e-05 2.30868e-12 1.49031e-13 1.18805e-12 9.07679e-14 7.40513e-09 0.000128852 1.22377e-07 1.14547e-13 8.18835e-12 2.84148e-11 9.88722e-11 2.12563e-11 4.4444e-10 6.13012e-07 0.000208846 2.31807e-09 7.4185e-12 4.93852e-10 3.30049e-09 1.24878e-08 3.83952e-07 9.47129e-05 0.00012675 3.48556e-10 1.04236e-10 1.5296e-13 1.14854e-09 6.90489e-08 2.27754e-07 6.21207e-07 8.84526e-06 0.000216699 5.23026e-05 2.76972e-06 9.64805e-06 2.05727e-10 1.81046e-11 2.36204e-07 1.21523e-05 1.46613e-05 4.60018e-05 4.13664e-07 2.12904e-05 3.23562e-05 0.000205537 5.1808e-06 2.0316e-10 2.0316e-10 5.1808e-06 0.000205537 2.43063e-07 5.22057e-05 4.60018e-05 4.13664e-07 1.46613e-05 1.21523e-05 2.36204e-07 1.81046e-11 2.05727e-10 9.64805e-06 2.76972e-06 5.23026e-05 0.000216699 1.40904e-05 6.82742e-06 5.56169e-07 5.0591e-07 2.27754e-07 6.90489e-08 1.14854e-09 1.5296e-13 1.04236e-10 3.48556e-10 0.00012675 9.47129e-05 1.89596e-05 1.1589e-07 8.01752e-08 6.04249e-09 3.30049e-09 4.93852e-10 7.4185e-12 2.31807e-09 0.000208846 6.13012e-07 2.6184e-09 9.7076e-11 8.27582e-12 9.88722e-11 2.84148e-11 8.18835e-12 1.14547e-13 1.22377e-07 0.000128852 7.40513e-09 1.31002e-11 8.92119e-14 1.18805e-12 1.49031e-13 2.30868e-12 2.45467e-05 4.94751e-06 2.07562e-11 7.95018e-14 1.38089e-14 3.42416e-14 2.4295e-14 1.90614e-14 1.3449e-14 1.74267e-12 2.68011e-05 1.46868e-10 3.01831e-09 0.000195041 1.35641e-12 1.65538e-14 1.3043e-11 3.44256e-10 6.6546e-06 9.19679e-05 6.80235e-05 0.000136117 1.27956e-13 1.71171e-12 9.00336e-14 2.25083e-09 0.000206741 0.000105756 2.9839e-12 3.95986e-14 8.01728e-13 7.94756e-14 1.82184e-12 1.24649e-08 0.000253446 5.90417e-05 5.4666e-12 9.80851e-12 1.83828e-10 9.50104e-12 1.30658e-13 7.54799e-14 1.83806e-11 6.29395e-08 0.000274065 3.83716e-05 1.1006e-11 2.71477e-14 3.04394e-09 5.17479e-08 1.24138e-09 8.33095e-12 2.74592e-13 1.2651e-13 1.08911e-12 1.7038e-10 2.7049e-07 0.000283832 2.83418e-05 2.26461e-11 4.51491e-12 1.02244e-06 1.53185e-05 1.48362e-07 4.62768e-10 8.76028e-12 2.5418e-12 1.39135e-11 1.27651e-09 9.08798e-07 0.000273488 2.16116e-05 4.2868e-11 4.2868e-11 2.16116e-05 0.000273488 9.08798e-07 1.27651e-09 1.39135e-11 2.5418e-12 8.76028e-12 4.62768e-10 1.48362e-07 1.53185e-05 1.02244e-06 4.51491e-12 2.26461e-11 2.83418e-05 0.000283832 2.7049e-07 1.7038e-10 1.08911e-12 1.2651e-13 2.74592e-13 8.33095e-12 1.24138e-09 5.17479e-08 3.04394e-09 2.71477e-14 1.1006e-11 3.83716e-05 0.000274065 6.29395e-08 1.83806e-11 7.54799e-14 1.25747e-14 1.30658e-13 9.50104e-12 1.83828e-10 9.80851e-12 5.4666e-12 5.90417e-05 0.000253446 1.24649e-08 1.82184e-12 3.55005e-14 7.94756e-14 8.01728e-13 3.95986e-14 2.9839e-12 0.000105756 0.000206741 2.25083e-09 6.82927e-13 1.71171e-12 1.27956e-13 0.000136117 6.80235e-05 9.19679e-05 6.6546e-06 5.88711e-09 1.07096e-11 1.65538e-14 1.35641e-12 0.000195041 3.01831e-09 7.85219e-13 1.46868e-10 2.68011e-05 1.74267e-12 2.01681e-13 5.35402e-05 1.92449e-10 2.79884e-06 1.3664e-12 0.000125312 0.000156044 3.05577e-14 6.57061e-10 3.86447e-10 0.0003125 3.76884e-12 5.00683e-09 0.000312495 2.74084e-11 2.1796e-14 4.01117e-08 0.00031246 1.42777e-10 6.39213e-14 1.1002e-14 2.93848e-13 2.13221e-07 0.000312286 5.61848e-10 3.7409e-11 4.21329e-12 3.01743e-12 8.12047e-07 0.000311686 1.7551e-09 2.54353e-12 2.18285e-08 1.4912e-09 2.36543e-13 2.39948e-11 2.37396e-06 0.000310098 4.53791e-09 7.88675e-10 1.21583e-05 4.57772e-07 3.07614e-11 1.44566e-10 5.40781e-06 0.000294466 9.63884e-09 9.63884e-09 0.000294466 5.40781e-06 1.44566e-10 3.07614e-11 4.57772e-07 1.21583e-05 7.88675e-10 4.53791e-09 0.000310098 2.37396e-06 2.39948e-11 2.36543e-13 1.4912e-09 2.18285e-08 2.54353e-12 1.7551e-09 0.000311686 8.12047e-07 3.01743e-12 4.21329e-12 3.7409e-11 5.61848e-10 0.000312286 2.13221e-07 2.93848e-13 1.1002e-14 6.39213e-14 1.42777e-10 0.00031246 4.01117e-08 2.1796e-14 2.74084e-11 0.000312495 5.00683e-09 3.76884e-12 0.0003125 3.86447e-10 3.05577e-14 6.57061e-10 0.000156044 0.000125312 2.79884e-06 1.3664e-12 1.92449e-10 5.35402e-05 2.01681e-13 7.26257e-06 2.60708e-06 1.89341e-13 0.000162166 8.24952e-05 2.35721e-05 7.82679e-13 0.0003125 2.63418e-11 7.81943e-12 0.0003125 1.42062e-10 6.79377e-11 0.000312499 6.67886e-10 4.56818e-10 0.000312497 2.50696e-09 7.66899e-14 2.36305e-09 0.00031249 7.60003e-09 4.67326e-14 4.22481e-11 1.20523e-13 9.63566e-09 0.000312471 1.92097e-08 1.71873e-11 2.35337e-08 3.47024e-11 1.09541e-14 3.19817e-08 0.000312403 4.18191e-08 5.71624e-09 1.2649e-05 8.72027e-09 1.56496e-14 6.76978e-14 8.56044e-08 0.000299674 7.74013e-08 7.74013e-08 0.000299674 8.56044e-08 6.76978e-14 1.56496e-14 8.72027e-09 1.2649e-05 5.71624e-09 4.18191e-08 0.000312403 3.19817e-08 1.09541e-14 3.47024e-11 2.35337e-08 1.71873e-11 1.92097e-08 0.000312471 9.63566e-09 1.20523e-13 4.22481e-11 4.67326e-14 7.60003e-09 0.00031249 2.36305e-09 7.66899e-14 2.50696e-09 0.000312497 4.56818e-10 6.67886e-10 0.000312499 6.79377e-11 1.42062e-10 0.0003125 7.81943e-12 2.63418e-11 0.0003125 7.82679e-13 2.35721e-05 0.000162166 8.24952e-05 1.89341e-13 2.60708e-06 7.26257e-06 0.000117193 4.19375e-12 1.79453e-14 0.0003125 1.70612e-11 1.10235e-13 0.0003125 6.88016e-11 8.65581e-13 0.0003125 3.31225e-10 6.19664e-12 0.000312499 1.40365e-09 3.67752e-11 0.000312495 4.90287e-09 8.65237e-14 1.77927e-10 0.000312486 1.41871e-08 8.93955e-14 4.58319e-11 1.16669e-14 7.09139e-10 0.000312464 3.48398e-08 3.171e-11 2.46684e-08 3.06611e-12 2.37437e-09 0.000312398 7.45755e-08 1.02155e-08 1.28385e-05 7.07871e-10 6.54705e-09 0.000299507 1.36721e-07 1.36721e-07 0.000299507 6.54705e-09 7.07871e-10 1.28385e-05 1.02155e-08 7.45755e-08 0.000312398 2.37437e-09 3.06611e-12 2.46684e-08 3.171e-11 3.48398e-08 0.000312464 7.09139e-10 1.16669e-14 4.58319e-11 8.93955e-14 1.41871e-08 0.000312486 1.77927e-10 8.65237e-14 4.90287e-09 0.000312495 3.67752e-11 1.40365e-09 0.000312499 6.19664e-12 3.31225e-10 0.0003125 8.65581e-13 6.88016e-11 0.0003125 1.10235e-13 1.70612e-11 0.0003125 1.79453e-14 4.19375e-12 0.000117193 0.00018086 2.29159e-13 0.0003125 1.04805e-12 2.9456e-14 0.0003125 6.79034e-12 2.48118e-13 0.0003125 4.39773e-11 1.77916e-12 0.0003125 2.33899e-10 1.03683e-11 0.000312499 9.93448e-10 7.73077e-14 4.91686e-11 0.000312497 3.42509e-09 4.20438e-14 4.25491e-11 1.92938e-10 0.00031249 9.85355e-09 1.40317e-11 2.36461e-08 7.94148e-13 6.39946e-10 0.000312451 2.43304e-08 4.19739e-09 1.26732e-05 1.87847e-10 1.75937e-09 0.00029977 5.07545e-08 5.07545e-08 0.00029977 1.75937e-09 1.87847e-10 1.26732e-05 4.19739e-09 2.43304e-08 0.000312451 6.39946e-10 7.94148e-13 2.36461e-08 1.40317e-11 9.85355e-09 0.00031249 1.92938e-10 4.25491e-11 4.20438e-14 3.42509e-09 0.000312497 4.91686e-11 7.73077e-14 9.93448e-10 0.000312499 1.03683e-11 2.33899e-10 0.0003125 1.77916e-12 4.39773e-11 0.0003125 2.48118e-13 6.79034e-12 0.0003125 2.9456e-14 1.04805e-12 0.0003125 2.29159e-13 0.00018086 0.000180783 0.0003125 2.51259e-14 0.0003125 7.74067e-14 2.50188e-13 0.0003125 7.91997e-13 1.88291e-12 0.0003125 6.04675e-12 1.09399e-11 0.0003125 3.52595e-11 6.49983e-14 5.05097e-11 0.0003125 1.62019e-10 3.79106e-11 1.90929e-10 0.000312499 6.05809e-10 1.84962e-12 2.21318e-08 6.26188e-13 6.07681e-10 0.000312475 1.89933e-09 4.8502e-10 1.24149e-05 1.60996e-10 1.604e-09 0.000300078 4.92554e-09 4.92554e-09 0.000300078 1.604e-09 1.60996e-10 1.24149e-05 4.8502e-10 1.89933e-09 0.000312475 6.07681e-10 6.26188e-13 2.21318e-08 1.84962e-12 6.05809e-10 0.000312499 1.90929e-10 3.79106e-11 1.62019e-10 0.0003125 5.05097e-11 6.49983e-14 3.52595e-11 0.0003125 1.09399e-11 6.04675e-12 0.0003125 1.88291e-12 7.91997e-13 0.0003125 2.50188e-13 7.74067e-14 0.0003125 2.51259e-14 0.0003125 0.000180783 0.000129317 3.31393e-14 0.0003125 2.66918e-13 0.0003125 2.08545e-12 0.0003125 1.30782e-11 0.0003125 7.41538e-14 6.46923e-11 0.0003125 5.36918e-13 7.09401e-14 2.57268e-10 0.0003125 3.12792e-12 4.01726e-11 8.45571e-10 0.000312499 1.49102e-11 1.14331e-13 2.28781e-08 1.79743e-12 2.36172e-09 0.000312475 5.93651e-11 2.39317e-11 1.25445e-05 5.00707e-10 5.51959e-09 0.000299949 1.93572e-10 1.93572e-10 0.000299949 5.51959e-09 5.00707e-10 1.25445e-05 2.39317e-11 5.93651e-11 0.000312475 2.36172e-09 1.79743e-12 2.28781e-08 1.14331e-13 1.49102e-11 0.000312499 8.45571e-10 4.01726e-11 3.12792e-12 0.0003125 2.57268e-10 7.09401e-14 5.36918e-13 0.0003125 6.46923e-11 7.41538e-14 0.0003125 1.30782e-11 0.0003125 2.08545e-12 0.0003125 2.66918e-13 0.0003125 3.31393e-14 0.000129317 1.50274e-09 3.7188e-05 9.48607e-09 0.000251271 5.88517e-05 1.36277e-10 0.0003125 3.85709e-10 0.0003125 1.20104e-09 0.000312499 3.52515e-09 0.000312496 1.09551e-14 1.47606e-13 9.24495e-09 0.000312491 6.44526e-14 6.53817e-11 7.41759e-14 2.14769e-08 0.000312478 3.34563e-13 3.02429e-08 2.26083e-11 4.45743e-08 0.000312425 1.51504e-12 9.14315e-13 1.36842e-05 6.3504e-09 8.01668e-08 0.000298729 5.73191e-12 5.73191e-12 0.000298729 8.01668e-08 6.3504e-09 1.36842e-05 9.14315e-13 1.51504e-12 0.000312425 4.45743e-08 2.26083e-11 3.02429e-08 3.34563e-13 0.000312478 2.14769e-08 7.41759e-14 6.53817e-11 6.44526e-14 0.000312491 9.24495e-09 1.47606e-13 1.09551e-14 0.000312496 3.52515e-09 0.000312499 1.20104e-09 0.0003125 3.85709e-10 0.0003125 1.36277e-10 0.000251271 5.88517e-05 9.48607e-09 3.7188e-05 1.50274e-09 1.0358e-06 0.000217769 1.26709e-06 0.000311233 1.29471e-06 0.000311205 1.53005e-06 0.00031097 1.93859e-06 0.000310561 7.15808e-13 2.08851e-14 2.50112e-06 0.000309999 1.88865e-10 4.86385e-12 3.19759e-06 0.000309302 1.4869e-14 5.54473e-08 1.24019e-09 4.00357e-06 0.00030844 6.41635e-14 5.01419e-14 1.63352e-05 3.11478e-07 4.63493e-06 0.000291218 2.43125e-13 2.43125e-13 0.000291218 4.63493e-06 3.11478e-07 1.63352e-05 5.01419e-14 6.41635e-14 0.00030844 4.00357e-06 1.24019e-09 5.54473e-08 1.4869e-14 0.000309302 3.19759e-06 4.86385e-12 1.88865e-10 0.000309999 2.50112e-06 2.08851e-14 7.15808e-13 0.000310561 1.93859e-06 0.00031097 1.53005e-06 0.000311205 1.29471e-06 0.000311233 1.26709e-06 0.000217769 1.0358e-06 6.22719e-05 5.29004e-09 0.000262908 3.70251e-12 3.29193e-08 4.84728e-05 0.000308104 4.39649e-06 0.000303728 8.77247e-06 0.000295752 1.67484e-05 6.43134e-13 6.54247e-13 0.000283338 2.91616e-05 1.33008e-10 1.62886e-10 0.000266757 4.57423e-05 2.92371e-08 4.44558e-08 0.000247297 6.51296e-05 6.11406e-06 1.19906e-05 2.54205e-14 0.000213764 8.0631e-05 8.0631e-05 0.000213764 2.54205e-14 1.19906e-05 6.11406e-06 6.51296e-05 0.000247297 4.44558e-08 2.92371e-08 4.57423e-05 0.000266757 1.62886e-10 1.33008e-10 2.91616e-05 0.000283338 6.54247e-13 6.43134e-13 1.67484e-05 0.000295752 8.77247e-06 0.000303728 4.39649e-06 0.000308104 3.29193e-08 4.84728e-05 0.000262908 3.70251e-12 5.29004e-09 6.22719e-05 0.000187597 5.04464e-11 0.0003125 1.96334e-10 0.000312499 8.45898e-10 0.000312496 4.03253e-09 2.0237e-13 0.000312483 1.74629e-08 1.08949e-12 7.92483e-11 0.000312436 6.40252e-08 2.52611e-10 3.35554e-08 3.80797e-14 0.00031227 1.96678e-07 5.26745e-08 1.41039e-05 2.18687e-14 1.37097e-13 0.000297853 4.90131e-07 4.90131e-07 0.000297853 1.37097e-13 2.18687e-14 1.41039e-05 5.26745e-08 1.96678e-07 0.00031227 3.80797e-14 3.35554e-08 2.52611e-10 6.40252e-08 0.000312436 7.92483e-11 1.08949e-12 1.74629e-08 0.000312483 2.0237e-13 4.03253e-09 0.000312496 8.45898e-10 0.000312499 1.96334e-10 0.0003125 5.04464e-11 0.000187597 1.82468e-14 1.75269e-05 1.34938e-13 0.000126557 0.000147193 2.11806e-10 0.0003125 1.87684e-13 0.0003125 2.24342e-12 7.91904e-14 0.0003125 2.16112e-11 1.47454e-14 4.27938e-11 5.6535e-14 0.0003125 1.58033e-10 3.15832e-12 2.36509e-08 2.76915e-13 0.000312475 8.84547e-10 5.64803e-10 1.26703e-05 1.60595e-13 1.08867e-12 0.000299825 3.73733e-09 3.73733e-09 0.000299825 1.08867e-12 1.60595e-13 1.26703e-05 5.64803e-10 8.84547e-10 0.000312475 2.76915e-13 2.36509e-08 3.15832e-12 1.58033e-10 0.0003125 5.6535e-14 4.27938e-11 1.47454e-14 2.16112e-11 0.0003125 7.91904e-14 2.24342e-12 0.0003125 1.87684e-13 0.0003125 2.11806e-10 0.000126557 0.000147193 1.34938e-13 1.75269e-05 1.82468e-14 4.39933e-14 6.9634e-05 1.83932e-13 0.000238624 6.70683e-05 1.4687e-09 1.31424e-14 0.0003125 1.2784e-14 6.76055e-14 1.09059e-13 0.0003125 1.89724e-13 3.87251e-11 6.95415e-13 0.0003125 2.08158e-12 1.48841e-13 2.23731e-08 3.46891e-12 0.000312478 1.70126e-11 2.07884e-11 1.24552e-05 1.85382e-12 1.33863e-11 0.000300045 1.0196e-10 1.0196e-10 0.000300045 1.33863e-11 1.85382e-12 1.24552e-05 2.07884e-11 1.70126e-11 0.000312478 3.46891e-12 2.23731e-08 1.48841e-13 2.08158e-12 0.0003125 6.95415e-13 3.87251e-11 1.89724e-13 0.0003125 1.09059e-13 6.76055e-14 1.2784e-14 0.0003125 1.31424e-14 1.4687e-09 0.000238624 6.70683e-05 1.83932e-13 6.9634e-05 4.39933e-14 1.4677e-13 0.000128169 5.06391e-13 0.000310104 2.38749e-06 8.21177e-10 1.52931e-13 1.85621e-12 0.0003125 2.1163e-14 6.03814e-11 9.21983e-12 0.0003125 2.23167e-13 3.71871e-14 2.81241e-08 1.02782e-13 4.01595e-11 0.000312472 2.0401e-12 3.73611e-12 1.33345e-05 1.88109e-11 1.3926e-10 0.000299165 1.43401e-11 1.43401e-11 0.000299165 1.3926e-10 1.88109e-11 1.33345e-05 3.73611e-12 2.0401e-12 0.000312472 4.01595e-11 1.02782e-13 2.81241e-08 3.71871e-14 2.23167e-13 0.0003125 9.21983e-12 6.03814e-11 2.1163e-14 0.0003125 1.85621e-12 1.52931e-13 8.21177e-10 0.000310104 2.38749e-06 5.06391e-13 0.000128169 1.4677e-13 1.03932e-14 5.08104e-12 0.000175092 5.41178e-13 1.22802e-11 0.0003125 2.1117e-14 1.09671e-10 3.96296e-11 0.0003125 1.55576e-13 4.45026e-14 3.72514e-08 4.55217e-13 1.50947e-10 0.000312463 1.38784e-12 3.30557e-12 1.44483e-05 7.03917e-11 4.95233e-10 0.000298051 1.05147e-11 1.05147e-11 0.000298051 4.95233e-10 7.03917e-11 1.44483e-05 3.30557e-12 1.38784e-12 0.000312463 1.50947e-10 4.55217e-13 3.72514e-08 4.45026e-14 1.55576e-13 0.0003125 3.96296e-11 1.09671e-10 2.1117e-14 0.0003125 1.22802e-11 5.41178e-13 0.000175092 5.08104e-12 1.03932e-14 5.21947e-14 5.37826e-14 5.51951e-14 5.65059e-14 5.78376e-14 5.93726e-14 6.13857e-14 6.43406e-14 6.91739e-14 7.82554e-14 9.97652e-14 1.82612e-13 2.26698e-06 1.78962e-08 1.28313e-12 3.91065e-05 1.36039e-13 4.84589e-07 0.000162965 6.13615e-14 1.1417e-10 1.21151e-11 0.0003125 4.15075e-13 1.97046e-13 3.50971e-08 2.81657e-13 5.44665e-11 0.000312465 4.1986e-12 1.37421e-11 1.40903e-05 3.84225e-11 2.26559e-10 0.000298409 3.85988e-11 3.85988e-11 0.000298409 2.26559e-10 3.84225e-11 1.40903e-05 1.37421e-11 4.1986e-12 0.000312465 5.44665e-11 2.81657e-13 3.50971e-08 1.97046e-13 4.15075e-13 0.0003125 1.21151e-11 1.1417e-10 6.13615e-14 4.84589e-07 0.000162965 3.91065e-05 1.36039e-13 1.28313e-12 1.78962e-08 2.26698e-06 1.82612e-13 9.97652e-14 7.82554e-14 6.91739e-14 6.43406e-14 6.13857e-14 5.93726e-14 5.78376e-14 5.65059e-14 5.51951e-14 5.37826e-14 5.21947e-14 3.44213e-14 5.31011e-12 9.84127e-12 1.40348e-14 2.04507e-14 4.52266e-12 9.97394e-12 1.161e-14 1.14753e-14 3.75971e-12 1.00705e-11 3.04119e-12 1.01362e-11 2.38435e-12 1.01775e-11 1.80274e-12 1.02018e-11 1.30564e-12 1.02157e-11 8.9778e-13 1.02245e-11 5.79196e-13 1.02325e-11 3.45127e-13 1.02433e-11 1.86065e-13 1.02622e-11 8.83802e-14 1.03046e-11 3.59559e-14 1.04623e-11 7.33599e-07 4.34333e-06 1.99222e-14 4.59172e-14 4.13147e-11 5.79192e-06 5.20006e-14 5.12724e-05 0.000152575 2.72254e-13 2.34063e-10 6.07572e-12 2.22684e-08 1.96054e-14 1.39939e-12 0.000312478 1.1567e-10 5.87342e-10 1.24252e-05 2.57271e-12 1.08721e-11 0.000300073 1.60491e-09 1.60491e-09 0.000300073 1.08721e-11 2.57271e-12 1.24252e-05 5.87342e-10 1.1567e-10 0.000312478 1.39939e-12 1.96054e-14 2.22684e-08 6.07572e-12 2.72254e-13 2.34063e-10 5.12724e-05 0.000152575 5.79192e-06 5.20006e-14 4.13147e-11 4.59172e-14 1.99222e-14 4.34333e-06 7.33599e-07 1.04623e-11 3.59559e-14 1.03046e-11 8.83802e-14 1.02622e-11 1.86065e-13 1.02433e-11 3.45127e-13 1.02325e-11 5.79196e-13 1.02245e-11 8.9778e-13 1.02157e-11 1.30564e-12 1.02018e-11 1.80274e-12 1.01775e-11 2.38435e-12 1.01362e-11 3.04119e-12 1.00705e-11 3.75971e-12 1.14753e-14 1.161e-14 9.97394e-12 4.52266e-12 2.04507e-14 1.40348e-14 9.84127e-12 5.31011e-12 3.44213e-14 5.13442e-12 5.82974e-11 1.20441e-09 7.75749e-09 1.31097e-09 7.26475e-13 2.82413e-12 3.74108e-11 9.73112e-10 7.76604e-09 1.3412e-09 5.7038e-13 1.46407e-12 2.28925e-11 7.66401e-10 7.7748e-09 1.37623e-09 4.37064e-13 7.10573e-13 1.32775e-11 5.86299e-10 7.79138e-09 1.41871e-09 3.26045e-13 3.20528e-13 7.24951e-12 4.33854e-10 7.82652e-09 1.4725e-09 2.3615e-13 1.33358e-13 3.69859e-12 3.09067e-10 7.89636e-09 1.54361e-09 1.65615e-13 5.0799e-14 1.74968e-12 2.10852e-10 8.02705e-09 1.64193e-09 1.12202e-13 1.76111e-14 7.62192e-13 1.37064e-10 8.26469e-09 1.7852e-09 7.33636e-14 3.0453e-13 8.46197e-11 8.69866e-09 2.00832e-09 4.64077e-14 1.12031e-13 4.97391e-11 9.52307e-09 2.38894e-09 2.86961e-14 3.88194e-14 2.83381e-11 1.12284e-08 3.1315e-09 1.78483e-14 1.3546e-14 1.65678e-11 1.53598e-08 4.92242e-09 1.19899e-14 1.15625e-11 2.87334e-08 1.11173e-08 1.03005e-14 1.33842e-11 1.01988e-07 5.14299e-08 1.60513e-14 3.25875e-10 5.12069e-06 5.21824e-13 3.81545e-11 9.81616e-07 7.28362e-07 6.87733e-14 9.75404e-13 1.98151e-13 0.000161659 3.30819e-05 8.48054e-10 6.37837e-06 2.04174e-11 2.8966e-14 2.16306e-10 1.84711e-05 2.43305e-05 6.64428e-13 1.8162e-12 0.000201864 6.78342e-05 3.05076e-10 3.2336e-14 3.2336e-14 3.05076e-10 6.78342e-05 0.000201864 1.8162e-12 6.64428e-13 2.43305e-05 1.84711e-05 2.16306e-10 2.8966e-14 2.04174e-11 6.37837e-06 8.48054e-10 3.30819e-05 0.000161659 1.98151e-13 9.75404e-13 6.87733e-14 7.28362e-07 9.81616e-07 3.81545e-11 5.21824e-13 5.12069e-06 3.25875e-10 1.60513e-14 5.14299e-08 1.01988e-07 1.33842e-11 1.03005e-14 1.11173e-08 2.87334e-08 1.15625e-11 1.19899e-14 4.92242e-09 1.53598e-08 1.65678e-11 1.3546e-14 1.78483e-14 3.1315e-09 1.12284e-08 2.83381e-11 3.88194e-14 2.86961e-14 2.38894e-09 9.52307e-09 4.97391e-11 1.12031e-13 4.64077e-14 2.00832e-09 8.69866e-09 8.46197e-11 3.0453e-13 7.33636e-14 1.7852e-09 8.26469e-09 1.37064e-10 7.62192e-13 1.76111e-14 1.12202e-13 1.64193e-09 8.02705e-09 2.10852e-10 1.74968e-12 5.0799e-14 1.65615e-13 1.54361e-09 7.89636e-09 3.09067e-10 3.69859e-12 1.33358e-13 2.3615e-13 1.4725e-09 7.82652e-09 4.33854e-10 7.24951e-12 3.20528e-13 3.26045e-13 1.41871e-09 7.79138e-09 5.86299e-10 1.32775e-11 7.10573e-13 4.37064e-13 1.37623e-09 7.7748e-09 7.66401e-10 2.28925e-11 1.46407e-12 5.7038e-13 1.3412e-09 7.76604e-09 9.73112e-10 3.74108e-11 2.82413e-12 7.26475e-13 1.31097e-09 7.75749e-09 1.20441e-09 5.82974e-11 5.13442e-12 4.72462e-06 5.2263e-06 1.65329e-06 2.82721e-08 6.47661e-12 4.60918e-06 5.4136e-06 1.72917e-06 2.57067e-08 4.34181e-12 4.45165e-06 5.59854e-06 1.80815e-06 2.29679e-08 2.78385e-12 4.245e-06 5.77545e-06 1.88936e-06 2.00871e-08 1.69563e-12 3.98285e-06 5.93719e-06 1.97164e-06 1.71152e-08 9.73454e-13 3.66083e-06 6.07553e-06 2.05383e-06 1.41255e-08 5.22018e-13 3.27831e-06 6.18198e-06 2.13514e-06 1.1213e-08 2.58849e-13 2.84026e-06 6.2492e-06 2.21595e-06 8.48867e-09 1.17375e-13 2.359e-06 6.27283e-06 2.29909e-06 6.06577e-09 4.81051e-14 1.85522e-06 6.25352e-06 2.39193e-06 4.04116e-09 1.76151e-14 1.35797e-06 6.1997e-06 2.51053e-06 2.47441e-09 9.03486e-07 6.13517e-06 2.69063e-06 1.37231e-09 5.31202e-07 6.13082e-06 3.02647e-06 6.85327e-10 2.74267e-07 6.46401e-06 3.85881e-06 3.21115e-10 1.46738e-07 8.72536e-06 7.29854e-06 1.81671e-10 2.42226e-13 2.21773e-06 4.9443e-08 4.45995e-12 2.86327e-14 1.56928e-07 2.52933e-05 4.04244e-05 2.70065e-10 1.4912e-08 2.70912e-12 0.00016111 3.62436e-07 1.95674e-08 6.66706e-08 7