<?xml version="1.0"?>
<VTKFile type="PolyData" version="0.1" byte_order="LittleEndian">
<PolyData>
<Piece NumberOfPoints="961" NumberOfVerts="961" NumberOfLines="0" NumberOfStrips="0" NumberOfPolys="0">
<Points>
  <DataArray type="Float32" Name="Points" NumberOfComponents="3" format="ascii">19.527 19.973 0 19.5236 19.9745 0 19.5243 19.9742 0 19.5244 19.9741 0 19.5247 19.974 0 19.5251 19.9738 0 19.5242 19.9742 0 19.5256 19.9736 0 19.5289 19.9721 0 19.5246 19.9741 0 19.5294 19.9718 0 19.5298 19.9717 0 19.5307 19.9713 0 19.5291 19.972 0 19.5366 19.969 0 19.5267 19.973 0 19.5389 19.9681 0 19.5342 19.9699 0 19.5355 19.9694 0 19.5349 19.9696 0 19.5351 19.9695 0 19.5366 19.969 0 19.5453 19.966 0 19.5265 19.973 0 19.5394 19.9679 0 19.5341 19.9699 0 19.5423 19.9669 0 19.5408 19.9675 0 19.5411 19.9673 0 19.5414 19.9672 0 19.5441 19.9663 0 19.5477 19.9652 0 19.5429 19.9667 0 19.5464 19.9656 0 19.5468 19.9655 0 19.5476 19.9652 0 19.5473 19.9653 0 19.5488 19.9648 0 19.5458 19.9658 0 19.509 19.9845 0 19.5089 19.9843 0 19.5089 19.9841 0 19.5054 19.9874 0 19.5073 19.9854 0 19.506 19.9867 0 19.5063 19.9864 0 19.5061 19.9866 0 19.5102 19.9829 0 19.5124 19.9812 0 19.5064 19.9862 0 19.5088 19.984 0 19.5089 19.9838 0 19.5086 19.9842 0 19.5091 19.9837 0 19.5112 19.982 0 19.5187 19.9775 0 19.5124 19.9812 0 19.5116 19.9817 0 19.512 19.9814 0 19.5121 19.9813 0 19.5119 19.9815 0 19.5122 19.9813 0 19.5102 19.9828 0 19.5081 19.9846 0 19.5226 19.9753 0 19.5124 19.9812 0 19.5082 19.9844 0 19.5171 19.9781 0 19.5136 19.9803 0 19.5157 19.9789 0 19.5159 19.9788 0 19.5156 19.979 0 19.508 19.9842 0 19.5183 19.9773 0 19.5198 19.9765 0 19.52 19.9764 0 19.5204 19.9762 0 19.5213 19.9757 0 19.5196 19.9766 0 19.5173 19.9778 0 19.5002 19.9953 0 19.5005 19.9956 0 19.5002 19.9975 0 19.5 19.9994 0 19.5 19.9998 0 19.504 19.9887 0 19.5022 19.9919 0 19.5004 19.9965 0 19.501 19.9944 0 19.5002 19.9976 0 19.5003 19.9971 0 19.5002 19.9974 0 19.5002 19.9975 0 19.5 19.9992 0 19.5043 19.9888 0 19.5021 19.992 0 19.5007 19.9952 0 19.5005 19.9961 0 19.5011 19.9943 0 19.501 19.9944 0 19.5011 19.9942 0 19.5009 19.9947 0 19.5008 19.995 0 19.5 19.9984 0 19.503 19.9905 0 19.5023 19.9916 0 19.5021 19.992 0 19.5002 19.9969 0 19.503 19.9905 0 19.502 19.9922 0 19.4999 19.9969 0 19.504 19.989 0 19.5041 19.9889 0 19.5048 19.9881 0 19.5038 19.9892 0 19.5039 19.9892 0 19.5038 19.9893 0 19.5033 19.9901 0 19.5004 19.9937 0 19.5023 20.0096 0 19.5027 20.01 0 19.503 20.0103 0 19.5032 20.0105 0 19.5034 20.0107 0 19.5036 20.011 0 19.5038 20.0112 0 19.5041 20.0115 0 19.5043 20.0117 0 19.5046 20.0121 0 19.5049 20.0124 0 19.505 20.0123 0 19.504 20.011 0 19.5041 20.0111 0 19.5042 20.0113 0 19.5043 20.0113 0 19.5044 20.0114 0 19.5045 20.0116 0 19.5046 20.0117 0 19.5047 20.0118 0 19.5047 20.0119 0 19.5048 20.012 0 19.5049 20.0121 0 19.505 20.0123 0 19.5052 20.0125 0 19.5024 20.0085 0 19.5024 20.0086 0 19.5025 20.0087 0 19.5025 20.0088 0 19.5026 20.0089 0 19.5027 20.0091 0 19.5029 20.0093 0 19.503 20.0095 0 19.5031 20.0097 0 19.5033 20.01 0 19.5036 20.0104 0 19.5039 20.0107 0 19.5041 20.0111 0 19.5045 20.0115 0 19.505 20.0121 0 19.501 20.0056 0 19.5011 20.0057 0 19.5011 20.0058 0 19.5012 20.0061 0 19.5013 20.0064 0 19.5014 20.0066 0 19.5015 20.0068 0 19.5018 20.0074 0 19.502 20.0078 0 19.5024 20.0086 0 19.503 20.0095 0 19.5036 20.0103 0 19.5047 20.0117 0 19.5055 20.0125 0 19.5003 20.003 0 19.5004 20.0033 0 19.5004 20.0037 0 19.5006 20.0043 0 19.5007 20.0048 0 19.501 20.0056 0 19.5021 20.0079 0 19.5043 20.0112 0 19.5055 20.0125 0 19.5 20.0001 0 19.5 20.0003 0 19.5 20.0006 0 19.5 20.0012 0 19.5002 20.0023 0 19.5007 20.0047 0 19.5021 20.0081 0 19.504 20.0112 0 19.5003 20.0031 0 19.502 20.0086 0 19.5013 20.0089 0 19.5222 20.0249 0 19.5195 20.0234 0 19.5222 20.0248 0 19.5148 20.0207 0 19.5184 20.0227 0 19.5196 20.0234 0 19.5208 20.024 0 19.5222 20.0247 0 19.5226 20.0249 0 19.509 20.0165 0 19.5111 20.0181 0 19.5123 20.0189 0 19.5137 20.0198 0 19.5154 20.0209 0 19.5165 20.0216 0 19.5171 20.0219 0 19.5178 20.0223 0 19.5187 20.0228 0 19.519 20.023 0 19.5193 20.0232 0 19.5196 20.0234 0 19.5197 20.0234 0 19.5198 20.0235 0 19.5199 20.0236 0 19.5201 20.0236 0 19.5203 20.0237 0 19.505 20.0129 0 19.5059 20.0137 0 19.5071 20.0147 0 19.508 20.0155 0 19.5092 20.0164 0 19.5107 20.0177 0 19.5118 20.0184 0 19.5124 20.0188 0 19.5128 20.0192 0 19.5132 20.0194 0 19.5135 20.0196 0 19.514 20.02 0 19.5144 20.0202 0 19.5147 20.0204 0 19.515 20.0206 0 19.5153 20.0208 0 19.5155 20.021 0 19.5156 20.021 0 19.5157 20.0211 0 19.5052 20.0127 0 19.5056 20.0131 0 19.5062 20.0137 0 19.5066 20.0141 0 19.5069 20.0144 0 19.5073 20.0147 0 19.5076 20.015 0 19.5078 20.0152 0 19.5081 20.0154 0 19.5086 20.0159 0 19.5091 20.0163 0 19.5094 20.0165 0 19.5096 20.0167 0 19.5099 20.017 0 19.5102 20.0172 0 19.5103 20.0173 0 19.5106 20.0175 0 19.5107 20.0176 0 19.5109 20.0177 0 19.5111 20.0179 0 19.5112 20.018 0 19.5113 20.018 0 19.5114 20.0181 0 19.5115 20.0182 0 19.5117 20.0183 0 19.5117 20.0184 0 19.5119 20.0185 0 19.512 20.0186 0 19.5053 20.0126 0 19.5055 20.0128 0 19.5056 20.0129 0 19.5057 20.013 0 19.5057 20.0131 0 19.5059 20.0132 0 19.506 20.0134 0 19.5062 20.0135 0 19.5063 20.0136 0 19.5063 20.0137 0 19.5064 20.0138 0 19.5066 20.0139 0 19.5067 20.0141 0 19.5068 20.0142 0 19.5069 20.0143 0 19.507 20.0144 0 19.5072 20.0145 0 19.5073 20.0147 0 19.5074 20.0148 0 19.5075 20.0149 0 19.5076 20.0149 0 19.5078 20.0151 0 19.5079 20.0152 0 19.5079 20.0153 0 19.5081 20.0154 0 19.5082 20.0155 0 19.5084 20.0157 0 19.5085 20.0158 0 19.5087 20.0159 0 19.5088 20.016 0 19.5091 20.0163 0 19.506 20.0134 0 19.5063 20.0137 0 19.5066 20.014 0 19.5067 20.0141 0 19.5069 20.0143 0 19.507 20.0144 0 19.5072 20.0146 0 19.5073 20.0147 0 19.5075 20.0149 0 19.5076 20.015 0 19.5079 20.0153 0 19.5082 20.0155 0 19.5054 20.0126 0 19.5055 20.0128 0 19.5057 20.013 0 19.5058 20.0131 0 19.5059 20.0132 0 19.506 20.0133 0 19.5062 20.0135 0 19.5065 20.0138 0 19.5067 20.014 0 19.507 20.0143 0 19.5074 20.0147 0 19.5076 20.0148 0 19.5077 20.0149 0 19.5079 20.0151 0 19.5082 20.0154 0 19.5084 20.0156 0 19.5086 20.0157 0 19.5087 20.0158 0 19.5089 20.0159 0 19.509 20.016 0 19.5091 20.0161 0 19.5092 20.0162 0 19.5093 20.0162 0 19.5094 20.0163 0 19.5095 20.0164 0 19.5097 20.0165 0 19.5054 20.0126 0 19.506 20.0132 0 19.5068 20.0139 0 19.5074 20.0144 0 19.5078 20.0148 0 19.5084 20.0152 0 19.5089 20.0157 0 19.5093 20.0159 0 19.5098 20.0163 0 19.5101 20.0165 0 19.5103 20.0166 0 19.5105 20.0167 0 19.5107 20.0168 0 19.5109 20.017 0 19.5111 20.0171 0 19.5112 20.0172 0 19.5113 20.0172 0 19.5067 20.0136 0 19.5084 20.015 0 19.5097 20.0159 0 19.5066 20.0137 0 19.543 20.0333 0 19.5458 20.0342 0 19.5481 20.035 0 19.5336 20.0299 0 19.5365 20.031 0 19.5388 20.0319 0 19.5418 20.0329 0 19.5441 20.0337 0 19.5458 20.0342 0 19.5469 20.0346 0 19.5478 20.0349 0 19.5482 20.035 0 19.5265 20.027 0 19.5336 20.0299 0 19.5365 20.031 0 19.5377 20.0315 0 19.5389 20.0319 0 19.54 20.0323 0 19.5409 20.0326 0 19.5414 20.0328 0 19.5416 20.0328 0 19.5245 20.026 0 19.5277 20.0274 0 19.5291 20.028 0 19.5303 20.0285 0 19.5318 20.0292 0 19.5328 20.0295 0 19.5334 20.0298 0 19.5339 20.03 0 19.5345 20.0302 0 19.5349 20.0304 0 19.5351 20.0305 0 19.5352 20.0305 0 19.5354 20.0306 0 19.5356 20.0307 0 19.5246 20.026 0 19.5271 20.0271 0 19.5283 20.0277 0 19.5291 20.028 0 19.5293 20.0281 0 19.5294 20.0282 0 19.5296 20.0282 0 19.5299 20.0283 0 19.5301 20.0284 0 19.5229 20.0251 0 19.5233 20.0253 0 19.5238 20.0256 0 19.5241 20.0257 0 19.5242 20.0258 0 19.5244 20.0258 0 19.5246 20.0259 0 19.5247 20.026 0 19.6229 19.9497 0 19.6218 19.9499 0 19.6232 19.9497 0 19.6244 19.9495 0 19.6229 19.9497 0 19.5581 19.9621 0 19.5641 19.9606 0 19.5581 19.9621 0 19.5605 19.9615 0 19.5634 19.9608 0 19.5622 19.9611 0 19.5664 19.96 0 19.558 19.9621 0 19.5664 19.96 0 19.5692 19.9593 0 19.5696 19.9592 0 19.5705 19.959 0 19.5723 19.9586 0 19.5689 19.9594 0 19.5758 19.9578 0 19.5828 19.9564 0 19.5746 19.9581 0 19.5764 19.9577 0 19.5772 19.9575 0 19.5778 19.9574 0 19.5758 19.9578 0 19.5793 19.9571 0 19.5816 19.9566 0 19.5831 19.9563 0 19.5842 19.9561 0 19.5857 19.9558 0 19.5869 19.9555 0 19.5831 19.9563 0 19.6016 19.9529 0 19.5898 19.955 0 19.5934 19.9543 0 19.5948 19.9541 0 19.5954 19.954 0 19.5963 19.9538 0 19.6016 19.9529 0 19.5992 19.9533 0 19.6027 19.9527 0 19.6051 19.9523 0 19.6045 19.9524 0 19.6057 19.9522 0 19.6133 19.9511 0 19.6183 19.9504 0 19.6121 19.9513 0 19.6139 19.951 0 19.615 19.9508 0 19.618 19.9504 0 19.6206 19.95 0 19.5557 19.9628 0 19.5529 19.9636 0 19.554 19.9633 0 19.5544 19.9632 0 19.5537 19.9633 0 19.5553 19.9629 0 19.5563 19.9626 0 19.5523 20.0363 0 19.5557 20.0372 0 19.5512 20.0359 0 19.5529 20.0364 0 19.5537 20.0367 0 19.5543 20.0368 0 19.5548 20.037 0 19.6108 20.0486 0 19.6179 20.0496 0 19.6206 20.05 0 19.6015 20.0471 0 19.6086 20.0482 0 19.6121 20.0488 0 19.6145 20.0491 0 19.6159 20.0493 0 19.5921 20.0454 0 19.5992 20.0467 0 19.6027 20.0473 0 19.6045 20.0476 0 19.6057 20.0478 0 19.5898 20.045 0 19.5934 20.0457 0 19.5951 20.046 0 19.5957 20.0461 0 19.5963 20.0462 0 19.5734 20.0417 0 19.5804 20.0432 0 19.5831 20.0437 0 19.5842 20.0439 0 19.5857 20.0442 0 19.5866 20.0444 0 19.5874 20.0446 0 19.5711 20.0411 0 19.5746 20.0419 0 19.5758 20.0422 0 19.577 20.0424 0 19.5784 20.0427 0 19.558 20.0379 0 19.5617 20.0388 0 19.5652 20.0397 0 19.5676 20.0403 0 19.5689 20.0406 0 19.5695 20.0407 0 19.5701 20.0409 0 19.5581 20.0379 0 19.56 20.0384 0 19.5611 20.0387 0 19.562 20.0389 0 19.6229 20.0503 0 19.6229 20.0503 0 19.6273 19.9491 0 19.632 19.9486 0 19.6355 19.9481 0 19.6379 19.9479 0 19.6414 19.9475 0 19.6414 19.9475 0 19.6476 19.9468 0 19.6449 19.9471 0 19.6465 19.9469 0 19.6508 19.9465 0 19.6578 19.9458 0 19.6483 19.9467 0 19.6543 19.9461 0 19.6561 19.946 0 19.6572 19.9458 0 19.6602 19.9456 0 19.6577 19.9458 0 19.6648 19.9452 0 19.6678 19.9449 0 19.6689 19.9448 0 19.6707 19.9447 0 19.6742 19.9444 0 19.6789 19.944 0 19.6671 19.945 0 19.6764 19.9442 0 19.6866 19.9435 0 19.6819 19.9438 0 19.6953 19.9429 0 19.6842 19.9436 0 19.6882 19.9434 0 19.6819 19.9
[...]
<PointData Scalars="w">
  <DataArray type="Float32" Name="w" NumberOfComponents="1" format="ascii">0.0118195 0.000723219 6.0032e-05 0.000192223 0.000304617 0.000704369 1.14583e-05 0.000624619 0.00637468 0.00261112 6.26028e-05 0.000608776 0.0014593 0.000211186 0.0017597 0.00550011 0.00460892 0.000546306 0.000907297 0.000117283 4.86203e-05 0.00153818 0.0128552 0.00558011 0.00104754 0.00316991 0.00172152 0.000102286 0.000343294 0.000327422 0.00305566 0.00632845 0.00211924 9.2549e-05 0.000200763 0.000203183 0.000129242 0.00278378 0.000367246 0.00976891 0.00999233 0.0100828 0.000351398 0.00151936 0.000140335 0.000132355 8.75752e-05 0.00650107 0.000318266 0.00372457 4.66948e-05 9.32449e-05 0.00042669 0.000313041 0.00290373 0.0171552 0.00031929 0.000555916 7.37935e-05 0.000152215 4.28812e-05 3.56653e-05 3.04781e-05 0.000619757 0.00198012 0.000278623 0.00886629 0.000263069 0.00219425 6.01915e-06 0.000315629 0.000186757 0.00926483 0.00180728 6.5612e-05 0.000298333 0.000714127 0.00154047 0.000104183 0.00783993 0.000851877 0.00148902 0.000320166 1.95584e-05 1.11743e-06 0.00250989 0.00257091 0.000242737 0.000691477 0.000175825 2.14064e-05 0.000128074 8.90607e-05 0.00221476 0.00328983 0.00231496 0.000322675 0.00220846 4.39942e-05 4.20173e-05 5.14293e-05 0.000519074 0.000219034 0.0044496 0.000305214 0.000231679 0.00050946 0.00890586 0.000487228 0.00443531 0.00891573 2.26635e-05 0.00035623 0.00130427 3.21196e-05 8.12711e-05 0.00022579 0.000605189 0.0178261 0.000521261 0.000398868 0.000487247 7.0402e-05 0.000570553 0.000250898 0.000241074 0.000569359 7.0553e-05 0.000806041 0.000162901 1.68622e-05 3.29872e-05 2.90832e-05 0.000133502 2.6776e-05 0.000242517 0.000267072 4.16959e-06 0.000206626 2.6907e-05 0.000219124 4.65385e-05 0.000371063 0.000107922 0.000114089 8.4255e-05 0.000161573 8.355e-06 0.000271036 0.000246494 0.00015727 0.000479034 4.74597e-05 0.000551423 0.00040225 0.000546823 0.000415455 0.000477083 0.00110929 0.00012267 0.00012191 0.000131777 0.00053983 0.000139699 9.87662e-05 0.00055045 0.000963108 7.49137e-05 0.00221986 0.000390946 0.00135916 0.00218482 4.1003e-05 5.72829e-05 0.000121235 0.000547852 0.00110392 0.000317849 0.000700855 0.00477605 0.00328582 2.29984e-05 0.000125675 0.000263347 0.000541601 0.00109992 0.00221754 0.00445315 0.00529316 0.00362992 0.00891521 0.00660711 0.00373412 0.000792553 0.00360013 0.000545712 0.00646002 0.00321 0.000125114 0.00171545 0.000782973 0.000158929 0.0032362 0.00199202 0.000393296 0.00322191 0.00160296 0.000863201 0.000180174 0.00157493 0.000772171 5.368e-05 0.000669039 0.000178909 3.66548e-05 0.00013626 9.31112e-05 5.23482e-05 7.52393e-05 0.00119044 0.0011818 0.00185407 0.000411283 0.00276106 0.00161131 0.000945397 0.000291481 0.000799439 0.000254998 0.000337476 0.000790454 0.000325984 0.00033976 0.000258263 0.000420288 0.000182471 0.000169943 6.4753e-06 0.000643576 0.000449061 0.00113669 7.03675e-05 0.000806381 0.000273165 0.000499122 7.40468e-05 0.000569553 0.000925509 0.000331174 0.000471012 0.000176542 0.000542179 3.22844e-05 0.000360927 0.000266913 7.28448e-05 0.000394952 0.000196477 5.45935e-06 0.000162205 0.000154787 0.000202602 9.80228e-05 8.00622e-05 9.0025e-05 0.000112201 6.65701e-05 1.11027e-05 8.43185e-05 0.000124158 4.06219e-05 0.000124221 0.000181082 0.000125198 0.00014388 6.58648e-05 0.000143679 0.000219377 0.000136769 0.000140905 7.08667e-05 0.000137161 0.000201509 0.00011714 0.000143599 3.67751e-05 0.000199663 0.000153106 0.000134803 6.45074e-05 0.000117804 0.000171679 7.63363e-05 0.000123937 2.49641e-05 7.12514e-05 9.22028e-06 2.25538e-05 4.44595e-05 5.55687e-05 0.000125318 5.6189e-05 0.000120923 4.66804e-05 0.000114142 2.99534e-05 8.2399e-05 5.64991e-05 7.63548e-06 0.000308581 0.000206264 0.000227231 2.86334e-05 0.000275472 0.000125834 0.000411949 0.000413905 0.000137575 0.000688237 0.000415328 7.9841e-05 0.000284542 0.000265831 0.000431641 0.000145531 0.000272391 7.35014e-05 0.000265989 6.74541e-06 0.000201807 0.000120119 3.50676e-05 0.000212987 9.87415e-05 8.02328e-05 0.000194561 0.00163589 0.000411859 0.00105942 4.98163e-05 0.0011078 0.000157898 0.000828554 0.000404339 0.000148702 0.000417259 0.00013469 0.000122781 0.000249438 0.000213498 4.7434e-05 0.000130815 0.00325088 0.00164633 0.00131117 0.00326393 0.0063718 0.0012061 0.00177203 0.00642041 0.000622489 0.00185847 0.00313699 0.00119885 0.000489828 0.00165578 0.000294044 0.000229039 0.0057717 0.00271147 0.00163319 0.00148049 0.00151468 0.000708689 0.000650746 0.000293429 0.000146976 0.00564116 0.00319417 0.000273055 0.0012007 0.00155838 0.000429811 0.000303567 0.00073974 0.000407194 0.000330839 4.58645e-05 0.000258849 0.000148544 7.59953e-05 0.00535099 0.00155359 0.00150343 0.000355568 0.000183804 0.000154513 0.000309648 0.000125122 0.000154913 0.000500643 0.000759327 0.000369632 0.000248974 2.72623e-05 0.000309904 0.000141287 0.000159659 0.00530113 0.00026687 0.000156329 0.00139666 0.000732649 0.00337291 0.0126683 0.000918449 0.000680255 0.00166785 0.00093262 0.00607585 0.000991202 0.00142871 8.97205e-05 0.000601908 0.00127071 0.00287149 5.65674e-05 0.00613321 0.0126744 0.000636056 0.000252303 0.000134416 0.00059985 1.9046e-05 0.00265306 0.00293395 0.000642638 0.000414884 0.00024129 0.00118838 0.000120227 0.0126213 0.0011173 0.000461002 0.000120076 0.000606089 0.00122116 0.0119496 0.00100064 0.00041055 4.23864e-05 0.000301777 0.00120769 0.00606291 0.00705921 0.000378316 0.00019728 0.00117286 0.00551984 0.000691454 0.00286454 0.00040065 3.57224e-05 0.000679774 0.000136931 0.0012926 0.00109134 0.00630811 0.00272959 0.00303008 0.00143859 0.000535664 0.000760788 0.000294125 0.00214899 0.00107443 0.000670711 0.00235735 0.00118377 0.00275313 0.00241597 0.000843047 0.00258613 0.00593458 0.00273747 0.00122871 0.00125976 0.0059809 0.000799168 0.00123157 4.23745e-05 0.00131297 0.0125693 0.00153328 0.000611366 0.00221714 0.00128303 0.000588938 0.000329465 0.00614118 0.00292777 9.24914e-05 0.00253955 0.000621828 0.00362912 0.00622961 0.00302147 0.00285908 0.000268841 0.000981933 0.000297802 0.00338479 0.00143905 0.00133323 0.000590876 0.000863948 0.00469301 0.000756756 0.000629132 0.00235546 0.00261592 0.00575728 0.000602731 0.00165806 0.000262645 0.00075532 0.00553346 0.0120601 0.00121424 0.000239946 0.000117554 0.00126045 0.00515796 0.00111706 0.000445771 0.000111653 0.00121845 0.0024408 0.00550855 0.00587691 0.0010211 0.000780569 0.00949494 0.00131225 0.0120314 0.000287955 0.000340819 0.000115156 7.78725e-05 0.00145193 0.00235804 0.00532671 0.00162131 0.000978377 0.00477654 0.0120607 0.00571085 0.00267493 0.00246251 0.00117986 0.00154867 0.00551898 0.00245108 0.00120354 0.0118516 0.00522221 0.00119321 0.0242801 0.00255184 0.000755608 0.00190722 0.0115927 0.00235704 0.00120023 1.41754e-05 0.00014069 0.000132445 0.00475935 0.000259856 0.000109887 0.00287331 0.0106016 0.0118279 0.000446117 9.29954e-05 0.00237785 0.00507882 0.00015138 9.08227e-05 0.00234445 0.0108023 0.000137452 0.000109049 0.0047446 0.00516733 0.0114134 0.000209761 7.20823e-05 0.00470714 0.0114394 0.00524761 0.00470153 0.0118412 0.0110053 0.00472065 0.00478394 0.00538161 0.00247529 0.00234443 0.00204867 0.000688338 0.00489805 0.0118764 0.0107742 0.00242703 0.00529269 0.00235855 0.00342575 0.0107731 9.37146e-05 0.00470563 0.00512975 7.39508e-06 0.00472741 0.0106003 0.0047978 0.00501042 0.0110963 0.00497962 0.0103078 0.00540172 0.00483746 0.010828 0.00484764 0.00531185 0.0112792 0.0100461 0.00653118 7.80551e-05 0.0107885 0.00474048 0.00290269 2.19024e-05 0.000121867 0.0052066 0.00471235 0.00349398 7.45593e-06 2.41241e-05 0.010834 0.00470053 0.00425248 0.00991333 0.00469233 0.0104466 0.00949902 0.010802 0.0049398 0.02122 0.00946498 0.0106392 0.00943276 0.0210988 0.00516066 0.000196093 0.00470823 0.000237282 0.000373883 0.00958108 0.000160791 0.000159469 0.0102432 0.00482751 0.000125508 0.00706224 0.0058375 0.00375733 0.00478162 0.00994423 0.00513923 0.00472707 0.0102815 0.00598259 0.0201317 0.00474943 0.0211019 0.00970251 0.000590791 0.00940369 0.000554692 0.00976167 0.000637497 0.0102177 0.000224387 0.00583728 0.000234242 0.000224366 0.00939928 0.0211509 0.0055177 0.00949359 0.000820343 0.00623362 0.00472841 0.00978322 0.00938598 0.0100671 0.00516321 0.0158616 0.0093891 0.000826157 0.00497895 0.00117164 0.00466861 0.0416512 0.000336723 0.0196785 0.00700854 0.000325461 0.00499648 0.00033387 0.00979724 0.0203504 0.00625803 0.00937532 0.00967698 0.00954753 0.0189461 0.00519914 0.0188019 0.000141739 0.0130922 0.0199263 0.0114044 0.00959796 0.00077055 0.0425313 0.00972985 0.0200844 0.0197259 0.000262692 0.000964771 0.00917642 0.00959935 0.009375 0.00992463 0.00998151 0.0413809 0.00937697 0.0012856 0.00891294 0.00997044 0.000685894 0.000711528 0.0197922 0.0104945 0.000907587 0.00942709 0.000964146 0.0138972 0.00937601 0.0205027 0.0187648 0.0412773 0.00947411 0.0201565 0.0187842 0.0134543 0.0195287 0.0109686 0.00939225 0.00125052 0.0395441 0.0191713 0.000410659 0.00726357 0.00987184 0.00101212 0.00197299 0.00629953 0.00316096 0.00313208 0.00994965 0.00948518 0.0201667 0.0100724 0.00956753 0.0115078 0.0415904 0.00558588 0.00937715 0.0205781 0.00651852 0.0190231 0.00950237 0.0191943 0.000903219 0.00338612 0.00116493 0.00943486 0.00127972 0.0324424 0.0127098 0.0024926 0.00316175 0.00141942 0.00684785 0.0063068 0.012493 0.0383826 0.0359742 0.00975941 0.016058 0.0151954 0.00644546 0.00341446 0.00401489 0.0037818 0.00357853 0.00956159 0.00978813 0.00942445 0.0205229 0.00937548 0.0100334 0.00520856 0.00944917 0.0103836 0.00937835 0.00153012 0.0195764 0.00260208 0.00383127 0.00950564 0.0112888 0.00358338 0.000647994 0.0364877 0.019861 0.010375 0.000772565 0.0187857 0.0111447 0.00118613 0.0125 0.0125 0.0125 0.0125 0.0125 0.0125 0.0125 0.025258 0.00165641 0.000979306 0.0028918 0.00122719 0.00293514 0.00102838 0.00297992 0.000932487 0.00304079 0.000912584 0.00311068 0.00412384 0.00607918 0.00361608 0.00989215 0.0134755 0.00941702 0.021058 0.00472957 0.0202448 0.0193556 0.00475477 0.00968742 0.00939027 0.00436751 0.00968216 0.0133209 0.00499359 0.0129202 0.00628492 0.0126228 0.0125047 0.0126283 0.0129847 0.0133784 0.0125 0.0127626 0.0126276 0.0125154 0.0126162 0.00967113 0.000506782 0.0118292 0.000456988 0.041775 0.00146296 0.0404257 0.00134801 0.0093776 0.00151687 0.0201226 0.0104901 0.00133269 0.0191378 0.00140704 0.00946781 0.00191263 0.0100274 0.00130479 0.00712252 0.0225898 0.00699702 0.0223571 0.00685945 0.0221331 0.00673466 0.0219285 0.00664062 0.0217545 0.00656185 0.0216198 0.00651187 0.0215348 0.0125 0.0125 0.0125 0.0125 0.0125 0.0125 0.0125 0.0125 0.0136903 0.00395495 0.00399901 0.00395967 0.00395823 0.00397367 0.0039527 0.0620896 0.0112095 0.0112217 0.0112671 0.0113072 0.0113479 0.0114042 0.0139657 0.0140173 0.0140764 0.0141249 0.014154 0.0141958 0.0142249 0.00450906 0.00454792 0.0045433 0.00455637 0.00461148 0.004567 0.00452609 </DataArray>
</PointData>
</Piece>
</PolyData>
</VTKFile>
