<?xml version="1.0"?>
<VTKFile type="PolyData" version="0.1" byte_order="LittleEndian">
<PolyData>
<Piece NumberOfPoints="454" NumberOfVerts="454" NumberOfLines="0" NumberOfStrips="0" NumberOfPolys="0">
<Points>
  <DataArray type="Float32" Name="Points" NumberOfComponents="3" format="ascii">19.4187 19.9031 0 19.4215 19.9094 0 19.4244 19.9156 0 19.4275 19.9219 0 19.4307 19.9281 0 19.4341 19.9344 0 19.4377 19.9406 0 19.4414 19.9469 0 19.4454 19.9531 0 19.4487 19.9581 0 19.4487 20.0419 0 19.4454 20.0469 0 19.4414 20.0531 0 19.4377 20.0594 0 19.4341 20.0656 0 19.4307 20.0719 0 19.4275 20.0781 0 19.4244 20.0844 0 19.4215 20.0906 0 19.4187 20.0969 0 19.4724 19.9031 0 19.4725 19.9094 0 19.4727 19.9156 0 19.473 19.9219 0 19.4734 19.9281 0 19.474 19.9344 0 19.4747 19.9406 0 19.4756 19.9469 0 19.4767 19.9531 0 19.4509 19.9612 0 19.478 19.9594 0 19.4541 19.9656 0 19.4795 19.9656 0 19.4588 19.9719 0 19.4813 19.9719 0 19.4639 19.9781 0 19.4835 19.9781 0 19.4998 19.9801 0 19.4694 19.9844 0 19.486 19.9844 0 19.499 19.9844 0 19.4753 19.9906 0 19.4889 19.9906 0 19.4985 19.9906 0 19.4995 19.9932 0 19.4963 19.9911 0 19.4818 19.9969 0 19.4924 19.9969 0 19.4987 19.9969 0 19.4996 19.9984 0 19.4966 19.9969 0 19.4889 19.9969 0 19.4889 20.0031 0 19.4966 20.0031 0 19.4996 20.0016 0 19.4987 20.0031 0 19.4924 20.0031 0 19.4818 20.0031 0 19.4963 20.0089 0 19.4995 20.0068 0 19.4985 20.0094 0 19.4889 20.0094 0 19.4753 20.0094 0 19.499 20.0156 0 19.486 20.0156 0 19.4694 20.0156 0 19.4998 20.0199 0 19.4835 20.0219 0 19.4639 20.0219 0 19.4813 20.0281 0 19.4588 20.0281 0 19.4795 20.0344 0 19.4541 20.0344 0 19.478 20.0406 0 19.4509 20.0388 0 19.4767 20.0469 0 19.4756 20.0531 0 19.4747 20.0594 0 19.474 20.0656 0 19.4734 20.0719 0 19.473 20.0781 0 19.4727 20.0844 0 19.4725 20.0906 0 19.4724 20.0969 0 19.5381 19.9031 0 19.5339 19.9094 0 19.5299 19.9156 0 19.526 19.9219 0 19.5222 19.9281 0 19.5187 19.9344 0 19.5153 19.9406 0 19.5121 19.9469 0 19.5091 19.9531 0 19.5064 19.9594 0 19.5471 19.9613 0 19.5039 19.9656 0 19.5372 19.9656 0 19.5466 19.9684 0 19.5431 19.9667 0 19.5431 19.9666 0 19.5416 19.9664 0 19.5019 19.9719 0 19.5249 19.9719 0 19.5308 19.9719 0 19.5294 19.9719 0 19.5282 19.9719 0 19.5005 19.977 0 19.5151 19.9781 0 19.5203 19.9783 0 19.517 19.9781 0 19.5165 19.9781 0 19.5131 19.9781 0 19.5077 19.9844 0 19.5085 19.9844 0 19.5082 19.9844 0 19.5059 19.9844 0 19.5031 19.9828 0 19.5028 19.9906 0 19.5029 19.9906 0 19.5023 19.99 0 19.5006 19.9879 0 19.5003 19.9969 0 19.5005 19.9953 0 19.5006 20.0048 0 19.5003 20.0031 0 19.5006 20.0121 0 19.5023 20.01 0 19.5032 20.0099 0 19.5031 20.0099 0 19.5031 20.0172 0 19.5059 20.0156 0 19.5082 20.0156 0 19.5093 20.0162 0 19.508 20.0159 0 19.5131 20.0219 0 19.5165 20.0219 0 19.517 20.0219 0 19.5316 20.024 0 19.5154 20.0221 0 19.5005 20.023 0 19.5282 20.0281 0 19.5294 20.0281 0 19.5308 20.0281 0 19.5252 20.0283 0 19.5019 20.0281 0 19.5416 20.0336 0 19.5431 20.0334 0 19.5431 20.0333 0 19.547 20.0316 0 19.5375 20.0345 0 19.5039 20.0344 0 19.5064 20.0406 0 19.5091 20.0469 0 19.5121 20.0531 0 19.5153 20.0594 0 19.5187 20.0656 0 19.5222 20.0719 0 19.526 20.0781 0 19.5299 20.0844 0 19.5339 20.0906 0 19.5381 20.0969 0 19.5915 19.955 0 19.5913 19.9547 0 19.5908 19.9547 0 19.5693 19.9606 0 19.5691 19.9594 0 19.5688 19.9594 0 19.5664 19.9594 0 19.5625 19.9678 0 19.5541 19.9636 0 19.5533 19.9635 0 19.553 19.9633 0 19.5762 20.0217 0 19.553 20.0367 0 19.5533 20.0365 0 19.5544 20.0365 0 19.5625 20.0322 0 19.5664 20.0406 0 19.5688 20.0406 0 19.5691 20.0406 0 19.5794 20.0406 0 19.5908 20.0453 0 19.5913 20.0453 0 19.5915 20.045 0 19.636 19.9485 0 19.6343 19.9483 0 19.6349 19.9482 0 19.611 19.9515 0 19.61 19.9516 0 19.6099 19.9513 0 19.6099 20.0487 0 19.61 20.0484 0 19.611 20.0485 0 19.6349 20.0518 0 19.6343 20.0517 0 19.636 20.0515 0 19.6941 19.9435 0 19.6913 19.9432 0 19.6911 19.9432 0 19.6691 19.9449 0 19.6663 19.945 0 19.6661 19.945 0 19.6661 20.055 0 19.6663 20.055 0 19.6691 20.0551 0 19.6911 20.0568 0 19.6913 20.0568 0 19.6941 20.0565 0 19.725 19.9416 0 19.725 19.9414 0 19.725 19.9414 0 19.725 20.0586 0 19.725 20.0586 0 19.725 20.0584 0 19.775 19.9402 0 19.775 19.9401 0 19.775 19.9401 0 19.775 20.0599 0 19.775 20.0599 0 19.775 20.0598 0 19.825 19.9402 0 19.825 19.9401 0 19.825 19.9401 0 19.825 20.0599 0 19.825 20.0599 0 19.825 20.0598 0 19.875 19.9412 0 19.875 19.9412 0 19.875 20.0588 0 19.875 20.0588 0 19.9199 19.9428 0 19.9201 19.9428 0 19.9451 19.944 0 19.9451 19.944 0 19.9451 20.056 0 19.9451 20.056 0 19.9201 20.0572 0 19.9199 20.0572 0 19.975 19.9456 0 19.975 19.9456 0 19.975 20.0544 0 19.975 20.0544 0 20.021 19.9485 0 20.0209 19.9485 0 20.046 19.9503 0 20.0459 19.9503 0 20.0459 20.0497 0 20.046 20.0497 0 20.0209 20.0515 0 20.021 20.0515 0 20.075 19.9525 0 20.075 19.9525 0 20.075 20.0475 0 20.075 20.0475 0 20.1102 19.9554 0 20.1101 19.9554 0 20.1351 19.9576 0 20.1351 19.9576 0 20.1351 20.0424 0 20.1351 20.0424 0 20.1101 20.0446 0 20.1102 20.0446 0 20.1691 19.9607 0 20.1691 19.9607 0 20.169 19.9607 0 20.1941 19.9631 0 20.194 19.9631 0 20.194 20.0369 0 20.1941 20.0369 0 20.169 20.0393 0 20.1691 20.0393 0 20.1691 20.0393 0 20.2248 19.9662 0 20.2248 19.9662 0 20.2247 19.9662 0 20.2498 19.9688 0 20.2497 19.9688 0 20.2497 20.0312 0 20.2498 20.0312 0 20.2247 20.0338 0 20.2248 20.0338 0 20.2248 20.0338 0 20.275 19.9715 0 20.275 19.9715 0 20.275 19.9715 0 20.275 20.0285 0 20.275 20.0285 0 20.275 20.0285 0 20.3032 19.9746 0 20.3032 19.9746 0 20.3031 19.9746 0 20.303 19.9747 0 20.3282 19.9775 0 20.3281 19.9775 0 20.328 19.9775 0 20.328 20.0225 0 20.3281 20.0225 0 20.3282 20.0225 0 20.303 20.0253 0 20.3031 20.0254 0 20.3032 20.0254 0 20.3032 20.0254 0 20.3547 19.9807 0 20.3546 19.9807 0 20.3546 19.9807 0 20.3545 19.9807 0 20.3796 19.9838 0 20.3796 19.9838 0 20.3795 19.9838 0 20.3795 20.0162 0 20.3796 20.0162 0 20.3796 20.0162 0 20.3545 20.0193 0 20.3546 20.0193 0 20.3546 20.0193 0 20.3547 20.0193 0 20.4045 19.9869 0 20.4045 19.9869 0 20.4044 19.9869 0 20.4298 19.9902 0 20.4297 19.9902 0 20.4297 19.9902 0 20.4296 19.9902 0 20.4295 19.9902 0 20.4315 19.9902 0 20.4315 20.0098 0 20.4295 20.0098 0 20.4296 20.0098 0 20.4297 20.0098 0 20.4297 20.0098 0 20.4298 20.0098 0 20.4044 20.0131 0 20.4045 20.0131 0 20.4045 20.0131 0 20.453 19.9933 0 20.4529 19.9934 0 20.4529 19.9934 0 20.4528 19.9934 0 20.4533 19.9933 0 20.4782 19.9969 0 20.4782 19.9969 0 20.4781 19.9969 0 20.4783 19.9969 0 20.4783 20.0031 0 20.4781 20.0031 0 20.4782 20.0031 0 20.4782 20.0031 0 20.4533 20.0067 0 20.4528 20.0066 0 20.4529 20.0066 0 20.4529 20.0066 0 20.453 20.0067 0 20.5468 19.9933 0 20.5461 19.9931 0 20.5461 19.9932 0 20.5218 19.9969 0 20.5214 19.9969 0 20.5215 19.9969 0 20.5216 19.9969 0 20.5001 20 0 20.5 20 0 20.5 20 0 20.5 20 0 20.5 20 0 20.5001 20 0 20.5216 20.0031 0 20.5215 20.0031 0 20.5214 20.0031 0 20.5218 20.0031 0 20.5461 20.0068 0 20.5461 20.0069 0 20.5468 20.0067 0 20.5935 19.9866 0 20.5911 19.9861 0 20.5913 19.9861 0 20.5685 19.9902 0 20.5662 19.99 0 20.5664 19.99 0 20.5666 19.9901 0 20.5666 20.0099 0 20.5664 20.01 0 20.5662 20.01 0 20.5685 20.0098 0 20.5913 20.0139 0 20.5911 20.0139 0 20.5935 20.0134 0 20.6403 19.9799 0 20.6353 19.9787 0 20.6355 19.9788 0 20.6359 19.9789 0 20.6153 19.9834 0 20.6103 19.9829 0 20.6105 19.983 0 20.6108 19.983 0 20.6108 20.017 0 20.6105 20.017 0 20.6103 20.0171 0 20.6153 20.0166 0 20.6359 20.0211 0 20.6355 20.0212 0 20.6353 20.0213 0 20.6403 20.0201 0 20.6963 19.9681 0 20.6966 19.9681 0 20.6871 19.9731 0 20.675 19.9719 0 20.6757 19.9719 0 20.6768 19.9719 0 20.6621 19.9767 0 20.6536 19.9756 0 20.6539 19.9757 0 20.6539 20.0243 0 20.6536 20.0244 0 20.6621 20.0233 0 20.6768 20.0281 0 20.6757 20.0281 0 20.675 20.0281 0 20.6871 20.0269 0 20.6966 20.0319 0 20.6963 20.0319 0 20.7384 19.9603 0 20.7389 19.9604 0 20.7396 19.9606 0 20.7338 19.9664 0 20.7134 19.9649 0 20.7139 19.965 0 20.7147 19.9651 0 20.7088 19.97 0 20.7088 20.03 0 20.7147 20.0349 0 20.7139 20.035 0 20.7134 20.0351 0 20.7338 20.0336 0 20.7396 20.0394 0 20.7389 20.0396 0 20.7384 20.0397 0 20.7957 19.9491 0 20.7965 19.9493 0 20.7756 19.9531 0 20.777 19.9531 0 20.7791 19.9531 0 20.7806 19.9597 0 20.7548 19.9572 0 20.7554 19.9573 0 20.7556 19.9633 0 20.7556 20.0367 0 20.7554 20.0427 0 20.7548 20.0428 0 20.7806 20.0403 0 20.7791 20.0469 0 20.777 20.0469 0 20.7756 20.0469 0 20.7965 20.0507 0 20.7957 20.0509 0 </DataArray>
</Points>
<Verts>
  <DataArray type="Int32" Name="connectivity" format="ascii">0 1 2 3 4 5 6 7 8 9 10 11 12 13 14 15 16 17 18 19 20 21 22 23 24 25 26 27 28 29 30 31 32 33 34 35 36 37 38 39 40 41 42 43 44 45 46 47 48 49 50 51 52 53 54 55 56 57 58 59 60 61 62 63 64 65 66 67 68 69 70 71 72 73 74 75 76 77 78 79 80 81 82 83 84 85 86 87 88 89 90 91 92 93 94 95 96 97 98 99 100 101 102 103 104 105 106 107 108 109 110 111 112 113 114 115 116 117 118 119 120 121 122 123 124 125 126 127 128 129 130 131 132 133 134 135 136 137 138 139 140 141 142 143 144 145 146 147 148 149 150 151 152 153 154 155 156 157 158 159 160 161 162 163 164 165 166 167 168 169 170 171 172 173 174 175 176 177 178 179 180 181 182 183 184 185 186 187 188 189 190 191 192 193 194 195 196 197 198 199 200 201 202 203 204 205 206 207 208 209 210 211 212 213 214 215 216 217 218 219 220 221 222 223 224 225 226 227 228 229 230 231 232 233 234 235 236 237 238 239 240 241 242 243 244 245 246 247 248 249 250 251 252 253 254 255 256 257 258 259 260 261 262 263 264 265 266 267 268 269 270 271 272 273 274 275 276 277 278 279 280 281 282 283 284 285 286 287 288 289 290 291 292 293 294 295 296 297 298 299 300 301 302 303 304 305 306 307 308 309 310 311 312 313 314 315 316 317 318 319 320 321 322 323 324 325 326 327 328 329 330 331 332 333 334 335 336 337 338 339 340 341 342 343 344 345 346 347 348 349 350 351 352 353 354 355 356 357 358 359 360 361 362 363 364 365 366 367 368 369 370 371 372 373 374 375 376 377 378 379 380 381 382 383 384 385 386 387 388 389 390 391 392 393 394 395 396 397 398 399 400 401 402 403 404 405 406 407 408 409 410 411 412 413 414 415 416 417 418 419 420 421 422 423 424 425 426 427 428 429 430 431 432 433 434 435 436 437 438 439 440 441 442 443 444 445 446 447 448 449 450 451 452 453 </DataArray>
  <DataArray type="Int32" Name="offsets" format="ascii">1 2 3 4 5 6 7 8 9 10 11 12 13 14 15 16 17 18 19 20 21 22 23 24 25 26 27 28 29 30 31 32 33 34 35 36 37 38 39 40 41 42 43 44 45 46 47 48 49 50 51 52 53 54 55 56 57 58 59 60 61 62 63 64 65 66 67 68 69 70 71 72 73 74 75 76 77 78 79 80 81 82 83 84 85 86 87 88 89 90 91 92 93 94 95 96 97 98 99 100 101 102 103 104 105 106 107 108 109 110 111 112 113 114 115 116 117 118 119 120 121 122 123 124 125 126 127 128 129 130 131 132 133 134 135 136 137 138 139 140 141 142 143 144 145 146 147 148 149 150 151 152 153 154 155 156 157 158 159 160 161 162 163 164 165 166 167 168 169 170 171 172 173 174 175 176 177 178 179 180 181 182 183 184 185 186 187 188 189 190 191 192 193 194 195 196 197 198 199 200 201 202 203 204 205 206 207 208 209 210 211 212 213 214 215 216 217 218 219 220 221 222 223 224 225 226 227 228 229 230 231 232 233 234 235 236 237 238 239 240 241 242 243 244 245 246 247 248 249 250 251 252 253 254 255 256 257 258 259 260 261 262 263 264 265 266 267 268 269 270 271 272 273 274 275 276 277 278 279 280 281 282 283 284 285 286 287 288 289 290 291 292 293 294 295 296 297 298 299 300 301 302 303 304 305 306 307 308 309 310 311 312 313 314 315 316 317 318 319 320 321 322 323 324 325 326 327 328 329 330 331 332 333 334 335 336 337 338 339 340 341 342 343 344 345 346 347 348 349 350 351 352 353 354 355 356 357 358 359 360 361 362 363 364 365 366 367 368 369 370 371 372 373 374 375 376 377 378 379 380 381 382 383 384 385 386 387 388 389 390 391 392 393 394 395 396 397 398 399 400 401 402 403 404 405 406 407 408 409 410 411 412 413 414 415 416 417 418 419 420 421 422 423 424 425 426 427 428 429 430 431 432 433 434 435 436 437 438 439 440 441 442 443 444 445 446 447 448 449 450 451 452 453 454 </DataArray>
</Verts>
<PointData Scalars="w">
  <DataArray type="Float32" Name="w" NumberOfComponents="1" format="ascii">7.01946e-14 7.83876e-14 8.81346e-14 9.98886e-14 1.14299e-13 1.32326e-13 1.55439e-13 1.85976e-13 2.27824e-13 1.61141e-13 1.47011e-13 2.07487e-13 1.69115e-13 1.41216e-13 1.2017e-13 1.03803e-13 9.07537e-14 8.0133e-14 7.13419e-14 6.39629e-14 2.82585e-11 3.67257e-11 4.80901e-11 6.37941e-11 8.62049e-11 1.19163e-10 1.6872e-10 2.43862e-10 3.56812e-10 1.27573e-13 5.23902e-10 3.78558e-13 7.74928e-10 5.25321e-13 1.19467e-09 7.81912e-13 2.07139e-09 6.02344e-08 1.27025e-12 4.54099e-09 2.82581e-07 2.27859e-12 1.31712e-08 2.41751e-06 5.78792e-07 1.87564e-10 4.70514e-12 3.37763e-08 2.1289e-05 4.87851e-05 2.37439e-07 1.65235e-11 1.72675e-11 2.4989e-07 5.00581e-05 2.05643e-05 3.14075e-08 4.45294e-12 1.93748e-10 5.99519e-07 2.45485e-06 1.20809e-08 2.13618e-12 3.22066e-07 4.13956e-09 1.1815e-12 7.57932e-08 1.88853e-09 7.22591e-13 1.09461e-09 4.82954e-13 7.16048e-10 3.46615e-13 4.89373e-10 1.16543e-13 3.3745e-10 2.33719e-10 1.63942e-10 1.17407e-10 8.61139e-11 6.4595e-11 4.93398e-11 3.8164e-11 2.97289e-11 3.86088e-14 1.47917e-13 5.96895e-13 2.01022e-12 5.41029e-12 1.50739e-11 5.26519e-11 2.27016e-10 8.0787e-10 1.92937e-09 1.33364e-14 5.47196e-09 1.26516e-12 3.0892e-08 0.0112681 0.00206654 5.63183e-11 2.74839e-08 1.46913e-09 5.25407e-06 0.0158161 2.87911e-08 7.02702e-08 1.99027e-08 6.87172e-06 0.0120569 5.54289e-06 1.83294e-12 1.82041e-05 0.00490354 0.00368601 4.20495e-08 3.0475e-14 8.90603e-05 0.00738817 4.03801e-06 7.7375e-11 0.00579756 0.000951179 0.000900239 0.00583063 7.93981e-11 4.12418e-06 0.00716553 4.59206e-05 3.10198e-14 4.28191e-08 0.00368504 0.0033383 1.59478e-05 1.85582e-12 5.57408e-06 0.0121664 7.7303e-08 2.54761e-08 9.5519e-08 2.89503e-08 0.0158045 6.42727e-06 1.82904e-09 4.24366e-08 5.66108e-11 0.00206851 0.0114096 4.9147e-08 2.77687e-12 9.7972e-09 3.96033e-09 1.87856e-09 5.91414e-10 1.5217e-10 4.79177e-11 1.87764e-11 7.56743e-12 2.4236e-12 6.44594e-13 1.79788e-13 1.24943e-09 0.0169139 8.96466e-10 3.89662e-08 0.0270547 0.000409381 1.96715e-13 1.31918e-11 4.47075e-07 0.00703042 4.94607e-10 1.16354e-13 4.96123e-10 0.00702925 3.57176e-07 1.3101e-11 1.97476e-13 0.000409732 0.0271421 1.45292e-10 8.97764e-10 0.0169159 1.28585e-09 1.27249e-10 0.0289694 1.15472e-07 0.000398671 0.0199783 5.89054e-12 5.89029e-12 0.0199832 0.000398641 1.1547e-07 0.0289774 1.27225e-10 4.83429e-13 0.0124489 0.00450271 1.19714e-11 0.0327118 9.14887e-13 9.14879e-13 0.0327118 1.1971e-11 0.0045027 0.0124489 4.83402e-13 1.41791e-12 0.0500406 1.79701e-09 1.797e-09 0.0500406 1.41789e-12 1.77834e-13 0.0500036 5.82327e-11 5.82327e-11 0.0500036 1.77834e-13 3.19193e-14 0.0500028 8.87712e-14 8.87712e-14 0.0500028 3.19193e-14 1.97702e-12 0.0500212 0.0500212 1.97702e-12 1.62497e-06 0.040241 0.00980751 1.02376e-13 1.02376e-13 0.00980751 0.0402411 1.62497e-06 0.000264485 0.0498192 0.0498192 0.000264485 0.0421646 3.41255e-06 6.93965e-10 0.00816241 0.00816241 6.93965e-10 3.41255e-06 0.0421646 0.0501538 1.11765e-08 1.11765e-08 0.0501538 2.16352e-11 0.0203215 0.0298679 3.22949e-08 3.22949e-08 0.0298679 0.0203215 2.16353e-11 2.57098e-11 0.0383485 2.12031e-14 0.0118764 1.83511e-07 1.83511e-07 0.0118764 2.12031e-14 0.0383485 2.57098e-11 6.20121e-11 0.0498758 1.53649e-13 0.000385422 8.87644e-08 8.87644e-08 0.000385422 1.53649e-13 0.0498758 6.20122e-11 1.64891e-09 0.0502989 1.27533e-12 1.27533e-12 0.0502989 1.64891e-09 1.98431e-14 0.00632774 5.00038e-05 1.29188e-14 3.63013e-11 0.0440894 1.32193e-11 1.32193e-11 0.0440894 3.63013e-11 1.29188e-14 5.00038e-05 0.00632774 1.98431e-14 3.27925e-14 0.00135128 0.0078328 3.67233e-11 1.22393e-11 0.0411465 4.3793e-08 4.3793e-08 0.0411465 1.22393e-11 3.67233e-11 0.0078328 0.00135128 3.27925e-14 5.70534e-08 0.0089904 9.29637e-10 1.22805e-11 0.00264243 0.0383557 1.10482e-07 1.05731e-11 3.73222e-14 3.73222e-14 1.05731e-11 1.10481e-07 0.0383556 0.00264242 1.22804e-11 9.29633e-10 0.0089904 5.70532e-08 5.48436e-10 0.0051527 0.000499244 4.49296e-08 2.82978e-10 1.32571e-08 0.00474374 0.0265226 9.74391e-05 9.74391e-05 0.0265226 0.00474374 1.3257e-08 2.82978e-10 4.49295e-08 0.000499244 0.0051527 5.48433e-10 0.00312698 1.39944e-05 1.32213e-09 0.021177 7.51565e-05 7.22024e-09 2.08889e-14 2.4591e-11 1.22754e-07 1.88112e-05 1.88112e-05 1.22754e-07 2.4591e-11 2.08893e-14 7.22029e-09 7.51567e-05 0.021177 1.32215e-09 1.39944e-05 0.00312698 0.00626307 3.16961e-05 3.00303e-09 0.0179724 5.72854e-05 5.53672e-09 1.61915e-14 1.61921e-14 5.53684e-09 5.7286e-05 0.0179724 3.00313e-09 3.16966e-05 0.00626307 0.00939889 5.25583e-05 4.98127e-09 1.40504e-14 0.0148179 3.63938e-05 3.55876e-09 1.06051e-14 1.06058e-14 3.55891e-09 3.63947e-05 0.0148179 1.40516e-14 4.98155e-09 5.256e-05 0.00939889 1.33686e-05 1.1512e-09 0.0125346 6.28544e-05 6.07393e-09 1.76995e-14 0.0116739 1.27523e-05 1.32161e-09 1.3217e-09 1.27528e-05 0.0116739 1.77017e-14 6.07443e-09 6.28573e-05 0.0125346 1.15131e-09 1.33693e-05 4.1732e-05 3.83912e-09 1.03206e-14 0.0156704 4.73029e-05 4.71927e-09 1.44272e-14 0.00853366 0.00853366 1.44294e-14 4.71979e-09 4.7306e-05 0.0156704 1.03224e-14 3.83962e-09 4.17353e-05 1.52319e-05 1.205e-09 5.69124e-05 5.52041e-09 1.61624e-14 0.0188061 1.69701e-05 1.84795e-09 0.00539503 0.00539503 1.84822e-09 1.69715e-05 0.0188061 1.6166e-14 5.52132e-09 5.6918e-05 1.20521e-09 1.52336e-05 </DataArray>
</PointData>
</Piece>
</PolyData>
</VTKFile>
