<?xml version="1.0"?>
<VTKFile type="PolyData" version="0.1" byte_order="LittleEndian">
<PolyData>
<Piece NumberOfPoints="272" NumberOfVerts="272" NumberOfLines="0" NumberOfStrips="0" NumberOfPolys="0">
<Points>
  <DataArray type="Float32" Name="Points" NumberOfComponents="3" format="ascii">19.475 19.9125 0 19.475 19.9125 0 19.525 19.9125 0 19.475 19.9375 0 19.475 19.9254 0 19.4823 19.9379 0 19.525 19.9375 0 19.5499 19.9499 0 19.475 19.9625 0 19.4971 19.9625 0 19.525 19.9625 0 19.5423 19.9625 0 19.5425 19.9695 0 19.5347 19.9689 0 19.475 19.9781 0 19.4879 19.9906 0 19.5122 19.9875 0 19.525 19.9875 0 19.5273 19.9875 0 19.5179 19.9875 0 19.4972 19.9838 0 19.4972 20.0162 0 19.5179 20.0125 0 19.5273 20.0125 0 19.525 20.0125 0 19.5122 20.0125 0 19.4879 20.0094 0 19.475 20.0219 0 19.5347 20.0311 0 19.5425 20.0305 0 19.5423 20.0375 0 19.525 20.0375 0 19.4971 20.0375 0 19.475 20.0375 0 19.5499 20.0501 0 19.525 20.0625 0 19.4823 20.0621 0 19.475 20.0746 0 19.475 20.0625 0 19.525 20.0875 0 19.475 20.0875 0 19.475 20.0875 0 19.6787 19.9415 0 19.6586 19.9478 0 19.625 19.9478 0 19.625 19.9625 0 19.625 19.9625 0 19.625 19.9695 0 19.6412 19.9564 0 19.625 19.9689 0 19.5836 19.9643 0 19.6586 19.9625 0 19.625 19.9625 0 19.625 19.9875 0 19.625 19.9875 0 19.625 19.9875 0 19.625 19.9875 0 19.625 19.9875 0 19.625 19.9875 0 19.625 19.9875 0 19.625 19.9875 0 19.625 19.9875 0 19.625 19.9875 0 19.625 19.9875 0 19.625 20.0125 0 19.625 20.0125 0 19.625 20.0125 0 19.625 20.0125 0 19.625 20.0125 0 19.625 20.0125 0 19.625 20.0125 0 19.625 20.0125 0 19.625 20.0125 0 19.625 20.0125 0 19.625 20.0125 0 19.625 20.0375 0 19.5836 20.0357 0 19.6586 20.0375 0 19.625 20.0311 0 19.6412 20.0436 0 19.625 20.0305 0 19.625 20.0375 0 19.625 20.0375 0 19.625 20.0522 0 19.6586 20.0522 0 19.6787 20.0585 0 19.775 19.9446 0 19.775 19.945 0 19.775 19.9625 0 19.775 19.9625 0 19.775 19.9625 0 19.775 19.9625 0 19.775 19.9875 0 19.775 19.9875 0 19.775 19.9875 0 19.775 19.9875 0 19.775 19.9875 0 19.775 19.9875 0 19.775 20.0125 0 19.775 20.0125 0 19.775 20.0125 0 19.775 20.0125 0 19.775 20.0125 0 19.775 20.0125 0 19.775 20.0375 0 19.775 20.0375 0 19.775 20.0375 0 19.775 20.0375 0 19.775 20.055 0 19.775 20.0554 0 19.925 19.9465 0 19.925 19.9462 0 19.925 19.9625 0 19.925 19.9625 0 19.925 19.9625 0 19.925 19.9875 0 19.925 19.9875 0 19.925 19.9875 0 19.925 19.9875 0 19.925 19.9875 0 19.925 20.0125 0 19.925 20.0125 0 19.925 20.0125 0 19.925 20.0125 0 19.925 20.0125 0 19.925 20.0375 0 19.925 20.0375 0 19.925 20.0375 0 19.925 20.0538 0 19.925 20.0535 0 20.075 19.9375 0 20.0228 19.9493 0 20.0224 19.9491 0 20.075 19.9625 0 20.0228 19.9625 0 20.0224 19.9625 0 20.0974 19.9647 0 20.1046 19.9647 0 20.075 19.9875 0 20.075 19.9875 0 20.075 19.9875 0 20.075 19.9875 0 20.075 19.9875 0 20.075 20.0125 0 20.075 20.0125 0 20.075 20.0125 0 20.075 20.0125 0 20.075 20.0125 0 20.1046 20.0353 0 20.0224 20.0375 0 20.0974 20.0353 0 20.0228 20.0375 0 20.075 20.0375 0 20.0224 20.0509 0 20.0228 20.0507 0 20.075 20.0625 0 20.225 19.9125 0 20.225 19.9125 0 20.225 19.9375 0 20.225 19.9375 0 20.225 19.9625 0 20.225 19.9625 0 20.225 19.9705 0 20.225 19.9705 0 20.225 19.9875 0 20.225 19.9875 0 20.225 19.9875 0 20.225 19.9875 0 20.225 20.0125 0 20.225 20.0125 0 20.225 20.0125 0 20.225 20.0125 0 20.225 20.0295 0 20.225 20.0295 0 20.225 20.0375 0 20.225 20.0375 0 20.225 20.0625 0 20.225 20.0625 0 20.225 20.0875 0 20.225 20.0875 0 20.375 19.9125 0 20.375 19.9125 0 20.375 19.9125 0 20.375 19.9125 0 20.375 19.9125 0 20.375 19.9125 0 20.375 19.9375 0 20.375 19.9375 0 20.375 19.9375 0 20.375 19.9625 0 20.375 19.9625 0 20.375 19.9625 0 20.3035 19.9748 0 20.3036 19.9748 0 20.375 19.9875 0 20.375 19.9875 0 20.375 19.9875 0 20.375 19.9875 0 20.3035 19.9875 0 20.3785 19.9914 0 20.3036 19.9875 0 20.3786 19.9918 0 20.3812 19.992 0 20.3844 19.992 0 20.387 19.992 0 20.3864 20.008 0 20.3844 20.008 0 20.3812 20.008 0 20.3036 20.0125 0 20.3786 20.0082 0 20.3035 20.0125 0 20.3785 20.0086 0 20.375 20.0125 0 20.375 20.0125 0 20.375 20.0125 0 20.375 20.0125 0 20.3036 20.0252 0 20.3035 20.0252 0 20.375 20.0375 0 20.375 20.0375 0 20.375 20.0375 0 20.375 20.0625 0 20.375 20.0625 0 20.375 20.0625 0 20.375 20.0875 0 20.375 20.0875 0 20.375 20.0875 0 20.375 20.0875 0 20.375 20.0875 0 20.375 20.0875 0 20.525 19.9125 0 20.525 19.9125 0 20.525 19.9125 0 20.475 19.9125 0 20.525 19.9375 0 20.525 19.9375 0 20.525 19.9375 0 20.475 19.9375 0 20.525 19.9625 0 20.525 19.9625 0 20.525 19.9625 0 20.475 19.9625 0 20.4751 19.9875 0 20.5501 19.984 0 20.4757 19.9875 0 20.5507 19.9841 0 20.4777 19.9875 0 20.4777 19.9982 0 20.4757 19.9982 0 20.4751 19.9982 0 20.475 19.9875 0 20.4751 20.0018 0 20.4757 20.0018 0 20.4777 20.0018 0 20.4777 20.0125 0 20.4757 20.0125 0 20.5507 20.0159 0 20.4751 20.0125 0 20.5501 20.016 0 20.475 20.0125 0 20.525 20.0375 0 20.525 20.0375 0 20.525 20.0375 0 20.475 20.0375 0 20.525 20.0625 0 20.525 20.0625 0 20.525 20.0625 0 20.475 20.0625 0 20.525 20.0875 0 20.525 20.0875 0 20.525 20.0875 0 20.475 20.0875 0 </DataArray>
</Points>
<Verts>
  <DataArray type="Int32" Name="connectivity" format="ascii">0 1 2 3 4 5 6 7 8 9 10 11 12 13 14 15 16 17 18 19 20 21 22 23 24 25 26 27 28 29 30 31 32 33 34 35 36 37 38 39 40 41 42 43 44 45 46 47 48 49 50 51 52 53 54 55 56 57 58 59 60 61 62 63 64 65 66 67 68 69 70 71 72 73 74 75 76 77 78 79 80 81 82 83 84 85 86 87 88 89 90 91 92 93 94 95 96 97 98 99 100 101 102 103 104 105 106 107 108 109 110 111 112 113 114 115 116 117 118 119 120 121 122 123 124 125 126 127 128 129 130 131 132 133 134 135 136 137 138 139 140 141 142 143 144 145 146 147 148 149 150 151 152 153 154 155 156 157 158 159 160 161 162 163 164 165 166 167 168 169 170 171 172 173 174 175 176 177 178 179 180 181 182 183 184 185 186 187 188 189 190 191 192 193 194 195 196 197 198 199 200 201 202 203 204 205 206 207 208 209 210 211 212 213 214 215 216 217 218 219 220 221 222 223 224 225 226 227 228 229 230 231 232 233 234 235 236 237 238 239 240 241 242 243 244 245 246 247 248 249 250 251 252 253 254 255 256 257 258 259 260 261 262 263 264 265 266 267 268 269 270 271 </DataArray>
  <DataArray type="Int32" Name="offsets" format="ascii">1 2 3 4 5 6 7 8 9 10 11 12 13 14 15 16 17 18 19 20 21 22 23 24 25 26 27 28 29 30 31 32 33 34 35 36 37 38 39 40 41 42 43 44 45 46 47 48 49 50 51 52 53 54 55 56 57 58 59 60 61 62 63 64 65 66 67 68 69 70 71 72 73 74 75 76 77 78 79 80 81 82 83 84 85 86 87 88 89 90 91 92 93 94 95 96 97 98 99 100 101 102 103 104 105 106 107 108 109 110 111 112 113 114 115 116 117 118 119 120 121 122 123 124 125 126 127 128 129 130 131 132 133 134 135 136 137 138 139 140 141 142 143 144 145 146 147 148 149 150 151 152 153 154 155 156 157 158 159 160 161 162 163 164 165 166 167 168 169 170 171 172 173 174 175 176 177 178 179 180 181 182 183 184 185 186 187 188 189 190 191 192 193 194 195 196 197 198 199 200 201 202 203 204 205 206 207 208 209 210 211 212 213 214 215 216 217 218 219 220 221 222 223 224 225 226 227 228 229 230 231 232 233 234 235 236 237 238 239 240 241 242 243 244 245 246 247 248 249 250 251 252 253 254 255 256 257 258 259 260 261 262 263 264 265 266 267 268 269 270 271 272 </DataArray>
</Verts>
<PointData Scalars="w">
  <DataArray type="Float32" Name="w" NumberOfComponents="1" format="ascii">0.00375 0.00375 0.00125 0.00375 0.000115412 0.00328079 0.00125 3.20965e-08 0.00375 0.00264331 0.00125 0.000383577 0.000163922 0.00037169 0.000934642 0.00233238 0.00189007 0.00125 0.00113682 0.00160646 0.00186021 0.00186021 0.00160646 0.00113682 0.00125 0.00189007 0.00233238 0.000934642 0.00037169 0.000163922 0.000383577 0.00125 0.00264331 0.00375 3.20965e-08 0.00125 0.00328079 0.000115412 0.00375 0.00125 0.00375 0.00375 0.000720053 0.000361304 0.000650963 0.00375 0.00375 0.00164016 0.00151185 0.00182162 0.00144188 0.00207028 0.00375 0.00375 0.00375 0.00375 0.00375 0.00375 0.00375 0.00375 0.00375 0.00375 0.00375 0.00375 0.00375 0.00375 0.00375 0.00375 0.00375 0.00375 0.00375 0.00375 0.00375 0.00375 0.00375 0.00375 0.00144188 0.00207028 0.00182162 0.00151185 0.00164016 0.00375 0.00375 0.000650963 0.000361304 0.000720053 0.00160874 0.00151425 0.00375 0.00375 0.00375 0.00375 0.00375 0.00375 0.00375 0.00375 0.00375 0.00375 0.00375 0.00375 0.00375 0.00375 0.00375 0.00375 0.00375 0.00375 0.00375 0.00375 0.00151425 0.00160874 0.00105981 0.00113461 0.00375 0.00375 0.00375 0.00375 0.00375 0.00375 0.00375 0.00375 0.00375 0.00375 0.00375 0.00375 0.00375 0.00375 0.00375 0.00375 0.00113461 0.00105981 0.00375 6.53254e-05 8.19658e-05 0.00375 0.00114125 0.00111837 0.00217778 0.00187023 0.00375 0.00375 0.00375 0.00375 0.00375 0.00375 0.00375 0.00375 0.00375 0.00375 0.00187023 0.00111837 0.00217778 0.00114125 0.00375 8.19658e-05 6.53254e-05 0.00375 0.00375 0.00375 0.00375 0.00375 0.00375 0.00375 0.00133868 0.0013461 0.00375 0.00375 0.00375 0.00375 0.00375 0.00375 0.00375 0.00375 0.0013461 0.00133868 0.00375 0.00375 0.00375 0.00375 0.00375 0.00375 0.00375 0.00375 0.00375 0.00375 0.00375 0.00375 0.00375 0.00375 0.00375 0.00375 0.00375 0.00375 2.68889e-06 3.19166e-06 0.00375 0.00375 0.00375 0.00375 0.00017526 0.00245608 0.000182171 0.00234359 0.00221386 0.00210087 0.00202437 0.00203889 0.00210087 0.00221386 0.000182171 0.00234359 0.00017526 0.00245608 0.00375 0.00375 0.00375 0.00375 3.19166e-06 2.68889e-06 0.00375 0.00375 0.00375 0.00375 0.00375 0.00375 0.00375 0.00375 0.00375 0.00375 0.00375 0.00375 0.00375 0.00375 0.00375 0.00125 0.00375 0.00375 0.00375 0.00125 0.00375 0.00375 0.00375 0.00125 0.00125598 0.00179254 0.00128393 0.00179968 0.001385 0.000198769 0.000180634 0.000178581 0.00125 0.000177901 0.000180634 0.000198769 0.001385 0.00128393 0.00179968 0.00125444 0.0017888 0.00125 0.00375 0.00375 0.00375 0.00125 0.00375 0.00375 0.00375 0.00125 0.00375 0.00375 0.00375 0.00125 </DataArray>
</PointData>
</Piece>
</PolyData>
</VTKFile>
