<?xml version="1.0"?>
<VTKFile type="PolyData" version="0.1" byte_order="LittleEndian">
<PolyData>
<Piece NumberOfPoints="3027" NumberOfVerts="3027" NumberOfLines="0" NumberOfStrips="0" NumberOfPolys="0">
<Points>
  <DataArray type="Float32" Name="Points" NumberOfComponents="3" format="ascii">19.527 19.974 0 19.5239 19.9745 0 19.5236 19.9749 0 19.5243 19.9742 0 19.5244 19.9742 0 19.5247 19.9741 0 19.5251 19.974 0 19.5244 19.9742 0 19.5244 19.9744 0 19.5247 19.9744 0 19.5245 19.9748 0 19.5251 19.9746 0 19.5256 19.9743 0 19.5262 19.9742 0 19.5289 19.9735 0 19.5406 19.973 0 19.5256 19.9741 0 19.5295 19.9718 0 19.5298 19.9718 0 19.5307 19.9716 0 19.5293 19.972 0 19.5292 19.9724 0 19.5298 19.9723 0 19.5295 19.973 0 19.5307 19.9727 0 19.5301 19.9742 0 19.5336 19.9715 0 19.5336 19.9734 0 19.5366 19.972 0 19.5389 19.9719 0 19.5453 19.9705 0 19.529 19.973 0 19.5389 19.9684 0 19.5345 19.9699 0 19.5342 19.9702 0 19.5355 19.9695 0 19.535 19.9696 0 19.5349 19.9698 0 19.5351 19.9696 0 19.5352 19.9696 0 19.5352 19.9698 0 19.5351 19.9701 0 19.5356 19.9699 0 19.5348 19.9711 0 19.5336 19.9734 0 19.5366 19.9696 0 19.5377 19.9695 0 19.5371 19.9711 0 19.5395 19.9703 0 19.5383 19.9734 0 19.5453 19.9705 0 19.54 19.9679 0 19.5395 19.9685 0 19.5374 19.9699 0 19.5359 19.973 0 19.5423 19.9671 0 19.5408 19.9675 0 19.5408 19.9675 0 19.5411 19.9675 0 19.5409 19.9678 0 19.5414 19.9674 0 19.5417 19.9674 0 19.5415 19.9678 0 19.5412 19.9684 0 19.5424 19.968 0 19.5441 19.9675 0 19.5477 19.967 0 19.5453 19.9719 0 19.5441 19.9667 0 19.543 19.9681 0 19.5464 19.9656 0 19.5469 19.9655 0 19.5468 19.9656 0 19.5476 19.9652 0 19.5475 19.9653 0 19.5474 19.9655 0 19.5488 19.9652 0 19.5467 19.9658 0 19.5465 19.9673 0 19.5488 19.9672 0 19.5453 19.9719 0 19.5421 19.9697 0 19.509 19.986 0 19.5089 19.9859 0 19.5089 19.9858 0 19.5054 19.9874 0 19.5073 19.9857 0 19.506 19.9867 0 19.5063 19.9865 0 19.5063 19.9864 0 19.5061 19.9866 0 19.5061 19.9867 0 19.5063 19.9866 0 19.5065 19.9865 0 19.506 19.9871 0 19.5063 19.9871 0 19.5072 19.9864 0 19.5072 19.9871 0 19.5102 19.9852 0 19.5124 19.9812 0 19.5071 19.9862 0 19.5088 19.984 0 19.5089 19.9839 0 19.5089 19.9839 0 19.5088 19.9842 0 19.5087 19.9843 0 19.5091 19.9838 0 19.5094 19.9838 0 19.5093 19.9842 0 19.5099 19.984 0 19.5112 19.9832 0 19.5124 19.9828 0 19.5087 19.9852 0 19.5096 19.9852 0 19.509 19.9867 0 19.5113 19.9859 0 19.5187 19.9825 0 19.5124 19.9812 0 19.5118 19.9817 0 19.5116 19.982 0 19.512 19.9814 0 19.5121 19.9814 0 19.512 19.9815 0 19.512 19.9816 0 19.5121 19.9815 0 19.5122 19.9815 0 19.5124 19.9814 0 19.5122 19.9818 0 19.5119 19.9824 0 19.5113 19.9828 0 19.5113 19.9836 0 19.5103 19.9846 0 19.5102 19.9862 0 19.5172 19.9812 0 19.5148 19.9844 0 19.5195 19.9844 0 19.5226 19.9814 0 19.5273 19.9812 0 19.5124 19.9812 0 19.5103 19.9844 0 19.5171 19.9781 0 19.5142 19.9803 0 19.5137 19.9812 0 19.5157 19.9789 0 19.5159 19.9789 0 19.5156 19.979 0 19.5156 19.9792 0 19.5159 19.9791 0 19.5157 19.9795 0 19.5166 19.9788 0 19.5166 19.9793 0 19.516 19.9805 0 19.5195 19.9781 0 19.5195 19.9797 0 19.5148 19.9844 0 19.5195 19.9844 0 19.5266 19.9783 0 19.5266 19.9844 0 19.5189 19.9773 0 19.5184 19.9781 0 19.5198 19.9765 0 19.52 19.9765 0 19.5204 19.9764 0 19.5213 19.9761 0 19.5197 19.9766 0 19.5197 19.9768 0 19.52 19.9768 0 19.5198 19.9771 0 19.5204 19.977 0 19.5201 19.9777 0 19.5213 19.9773 0 19.5195 19.9797 0 19.5172 19.9844 0 19.5242 19.9768 0 19.5242 19.9797 0 19.5289 19.9781 0 19.5266 19.9844 0 19.5406 19.9812 0 19.5234 19.9766 0 19.5254 19.9766 0 19.5242 19.9797 0 19.5289 19.9781 0 19.5266 19.9844 0 19.5406 19.9812 0 19.5243 19.9778 0 19.5219 19.984 0 19.5406 19.9812 0 19.5243 19.9776 0 19.5406 19.9812 0 19.5406 19.9812 0 19.5312 19.9937 0 19.5312 19.9937 0 19.5312 19.9937 0 19.5312 19.9937 0 19.5312 19.9937 0 19.5312 19.9937 0 19.5014 19.9969 0 19.5078 19.9937 0 19.5312 19.9937 0 19.5002 19.9977 0 19.5018 19.9969 0 19.5078 19.9937 0 19.5312 19.9937 0 19.5005 19.9978 0 19.5021 19.9969 0 19.5036 19.9941 0 19.5083 19.9937 0 19.5312 19.9937 0 19.5002 19.998 0 19.5005 19.9977 0 19.5 19.9995 0 19.5001 19.9994 0 19.5 19.9999 0 19.5 19.9999 0 19.5001 19.9999 0 19.5005 19.9996 0 19.502 19.9984 0 19.504 19.9943 0 19.5087 19.9937 0 19.5312 19.9937 0 19.5022 19.9928 0 19.5004 19.9967 0 19.5006 19.9965 0 19.501 19.9956 0 19.5022 19.9953 0 19.5002 19.9976 0 19.5003 19.9971 0 19.5003 19.9971 0 19.5003 19.9972 0 19.5004 19.9972 0 19.5006 19.9971 0 19.5003 19.9973 0 19.5003 19.9974 0 19.5004 19.9974 0 19.5003 19.9975 0 19.5003 19.9976 0 19.5006 19.9975 0 19.5002 19.998 0 19.5005 19.998 0 19.5004 19.9992 0 19.502 19.9984 0 19.5043 19.9944 0 19.509 19.9937 0 19.5312 19.9937 0 19.5021 19.9929 0 19.503 19.9922 0 19.5008 19.9952 0 19.5006 19.9961 0 19.5011 19.9943 0 19.501 19.9944 0 19.5011 19.9944 0 19.501 19.9945 0 19.5011 19.9944 0 19.5012 19.9943 0 19.5017 19.9941 0 19.501 19.9947 0 19.5012 19.9947 0 19.5011 19.995 0 19.5011 19.9952 0 19.5017 19.9949 0 19.5025 19.9945 0 19.502 19.9961 0 19.5016 19.9984 0 19.5078 19.9921 0 19.5078 19.9969 0 19.5312 19.9937 0 19.503 19.9905 0 19.5023 19.9917 0 19.5025 19.9916 0 19.5022 19.992 0 19.5024 19.992 0 19.5028 19.9918 0 19.5023 19.9926 0 19.5028 19.9926 0 19.5025 19.9934 0 19.5017 19.9969 0 19.5055 19.9905 0 19.5055 19.9922 0 19.5102 19.9906 0 19.5078 19.9969 0 19.5312 19.9937 0 19.5031 19.9905 0 19.5025 19.9922 0 19.5015 19.9969 0 19.504 19.9891 0 19.5041 19.989 0 19.5043 19.9889 0 19.5048 19.9886 0 19.5054 19.9883 0 19.5039 19.9892 0 19.5039 19.9892 0 19.5039 19.9892 0 19.5039 19.9893 0 19.5039 19.9894 0 19.5042 19.9893 0 19.504 19.9896 0 19.5038 19.9901 0 19.5037 19.9905 0 19.5049 19.9898 0 19.5066 19.9891 0 19.5055 19.9922 0 19.5102 19.9906 0 19.5078 19.9969 0 19.5312 19.9937 0 19.5054 19.9891 0 19.5066 19.9891 0 19.5055 19.9922 0 19.5102 19.9906 0 19.5078 19.9969 0 19.5312 19.9937 0 19.5065 19.9937 0 19.5312 19.9937 0 19.5061 19.9937 0 19.5312 19.9937 0 19.5312 19.9937 0 19.5312 19.9937 0 19.5312 19.9937 0 19.5312 19.9937 0 19.5312 20.0063 0 19.5312 20.0063 0 19.5312 20.0063 0 19.5312 20.0063 0 19.5312 20.0063 0 19.5102 20.0094 0 19.5312 20.0063 0 19.5078 20.0031 0 19.5055 20.0078 0 19.5052 20.0119 0 19.5052 20.0123 0 19.5066 20.0109 0 19.5102 20.0094 0 19.5312 20.0063 0 19.5029 20.009 0 19.5078 20.0031 0 19.5055 20.0078 0 19.5037 20.0097 0 19.5036 20.0104 0 19.5041 20.0105 0 19.5049 20.0102 0 19.5042 20.011 0 19.5042 20.0112 0 19.5042 20.0114 0 19.5046 20.0111 0 19.5044 20.0114 0 19.5045 20.0116 0 19.5045 20.0117 0 19.5047 20.0115 0 19.5052 20.0113 0 19.5047 20.0118 0 19.5047 20.0119 0 19.5048 20.0118 0 19.5048 20.012 0 19.5048 20.0121 0 19.5052 20.0119 0 19.505 20.0122 0 19.5051 20.0122 0 19.505 20.0123 0 19.5051 20.0124 0 19.5053 20.0122 0 19.5052 20.0124 0 19.5052 20.0125 0 19.5054 20.0124 0 19.5066 20.0109 0 19.5102 20.0094 0 19.5312 20.0063 0 19.502 20.0047 0 19.5025 20.0079 0 19.503 20.009 0 19.5078 20.0031 0 19.5055 20.0078 0 19.5037 20.0096 0 19.5037 20.0104 0 19.5041 20.0105 0 19.5049 20.0102 0 19.5043 20.0111 0 19.5046 20.0111 0 19.5044 20.0113 0 19.5046 20.0116 0 19.5047 20.0115 0 19.5052 20.0113 0 19.5047 20.0117 0 19.5052 20.0119 0 19.505 20.0122 0 19.5051 20.0122 0 19.5053 20.0122 0 19.5052 20.0124 0 19.5052 20.0125 0 19.5054 20.0124 0 19.5066 20.0109 0 19.5102 20.0094 0 19.5312 20.0063 0 19.5022 20.0047 0 19.5025 20.007 0 19.503 20.009 0 19.5078 20.0031 0 19.5055 20.0078 0 19.5034 20.0095 0 19.5036 20.01 0 19.504 20.0098 0 19.5036 20.0103 0 19.5036 20.0104 0 19.504 20.0104 0 19.5038 20.0106 0 19.5039 20.0106 0 19.5039 20.0108 0 19.5042 20.0107 0 19.5049 20.0102 0 19.504 20.0109 0 19.5041 20.011 0 19.5042 20.011 0 19.5041 20.0111 0 19.5042 20.0112 0 19.5043 20.0113 0 19.5043 20.0113 0 19.5046 20.0111 0 19.5044 20.0113 0 19.5044 20.0114 0 19.5045 20.0114 0 19.5046 20.0116 0 19.5047 20.0114 0 19.5047 20.0116 0 19.5047 20.0117 0 19.5047 20.0117 0 19.5048 20.0116 0 19.5052 20.0113 0 19.5047 20.0118 0 19.5048 20.0118 0 19.5048 20.0119 0 19.5048 20.0119 0 19.5049 20.012 0 19.505 20.0118 0 19.5049 20.012 0 19.505 20.012 0 19.5051 20.012 0 19.5053 20.0119 0 19.505 20.0122 0 19.5053 20.0122 0 19.5052 20.0124 0 19.5053 20.0124 0 19.5054 20.0124 0 19.5066 20.0109 0 19.5102 20.0094 0 19.5312 20.0063 0 19.5007 20.0039 0 19.5022 20.0047 0 19.5018 20.0066 0 19.5019 20.0072 0 19.5026 20.007 0 19.5022 20.0079 0 19.5022 20.0081 0 19.5024 20.008 0 19.5023 20.0083 0 19.5023 20.0083 0 19.5025 20.0083 0 19.5024 20.0084 0 19.5025 20.0084 0 19.5025 20.0085 0 19.5025 20.0086 0 19.5028 20.0082 0 19.5025 20.0086 0 19.5026 20.0086 0 19.5026 20.0087 0 19.5026 20.0088 0 19.5028 20.0087 0 19.5027 20.0089 0 19.503 20.0088 0 19.5027 20.0091 0 19.503 20.0091 0 19.503 20.0092 0 19.503 20.0093 0 19.5031 20.0095 0 19.5078 20.0031 0 19.5055 20.0078 0 19.5031 20.0096 0 19.5033 20.0096 0 19.5036 20.0096 0 19.5035 20.01 0 19.504 20.0098 0 19.5036 20.0103 0 19.504 20.0104 0 19.504 20.0105 0 19.5041 20.0107 0 19.5049 20.0102 0 19.5041 20.011 0 19.5045 20.0112 0 19.5048 20.0113 0 19.5052 20.0113 0 19.5052 20.0121 0 19.5066 20.0109 0 19.5102 20.0094 0 19.5312 20.0063 0 19.5005 20.0023 0 19.502 20.0016 0 19.5007 20.0043 0 19.502 20.0039 0 19.5011 20.0048 0 19.501 20.0053 0 19.501 20.0054 0 19.5012 20.0053 0 19.5017 20.0051 0 19.501 20.0055 0 19.501 20.0056 0 19.5011 20.0057 0 19.5012 20.0056 0 19.5011 20.0057 0 19.5012 20.0058 0 19.5013 20.0058 0 19.5013 20.0061 0 19.5017 20.0059 0 19.5025 20.0055 0 19.5013 20.0063 0 19.5014 20.0064 0 19.5015 20.0064 0 19.5018 20.0064 0 19.5017 20.0068 0 19.5019 20.0074 0 19.5025 20.0066 0 19.502 20.0074 0 19.5023 20.0074 0 19.5028 20.0074 0 19.5028 20.0086 0 19.5031 20.0095 0 19.5078 20.0031 0 19.5055 20.0078 0 19.5036 20.0098 0 19.5042 20.0102 0 19.5049 20.0102 0 19.5051 20.0117 0 19.5066 20.0102 0 19.5061 20.0113 0 19.5061 20.0121 0 19.5072 20.0117 0 19.5102 20.0094 0 19.5312 20.0063 0 19.5004 20.0008 0 19.5002 20.0021 0 19.5005 20.002 0 19.5003 20.0024 0 19.5003 20.0027 0 19.5004 20.0026 0 19.5006 20.0025 0 19.5003 20.0028 0 19.5003 20.0029 0 19.5004 20.0028 0 19.5003 20.003 0 19.5003
[...]
<PointData Scalars="w">
  <DataArray type="Float32" Name="w" NumberOfComponents="1" format="ascii">6.24583e-10 3.41447e-07 2.23504e-07 3.71158e-09 1.39922e-08 5.90654e-08 2.41405e-07 3.13927e-09 1.11161e-07 1.14431e-07 2.28828e-07 4.57671e-07 7.08389e-07 1.05662e-06 7.50575e-08 5.13453e-14 3.33441e-09 4.00576e-09 1.08212e-07 6.53191e-07 7.06403e-08 3.43231e-07 4.57738e-07 9.15109e-07 1.83039e-06 3.65444e-06 1.5395e-07 6.13725e-06 1.90708e-09 9.16327e-10 4.50926e-14 2.03062e-10 1.13469e-07 2.70745e-07 2.24722e-07 1.34396e-07 1.66293e-08 7.64348e-08 7.93158e-09 4.89418e-08 5.72195e-08 2.28873e-07 4.57749e-07 3.65959e-06 8.51062e-06 1.63728e-06 1.64919e-06 3.65224e-06 8.8453e-07 1.41724e-05 2.80828e-09 9.88689e-07 9.55996e-07 1.67218e-07 9.96372e-09 3.53694e-07 1.50011e-08 2.21329e-08 6.70286e-08 2.28878e-07 1.07625e-07 1.03459e-07 2.28879e-07 9.15493e-07 1.83081e-06 5.18967e-06 1.19562e-09 4.98713e-05 7.19386e-07 5.84087e-09 9.90838e-09 5.46228e-08 4.66022e-08 5.62566e-09 4.8502e-08 1.55616e-07 1.90795e-06 5.60192e-07 6.60929e-06 7.32335e-06 8.71289e-06 1.84198e-14 8.65587e-14 1.94342e-11 6.09206e-09 2.58065e-08 5.36788e-07 6.07703e-09 1.55715e-08 6.00031e-09 8.77783e-09 1.66805e-08 2.85437e-08 1.14085e-07 8.2242e-08 4.54145e-07 8.26024e-07 9.02411e-07 1.80586e-07 5.52355e-12 9.27931e-08 1.2518e-09 3.31363e-09 1.42914e-08 1.33838e-07 2.94967e-08 7.18096e-08 1.28993e-07 2.28385e-07 4.5341e-07 1.3771e-06 8.08322e-09 9.63558e-07 1.80678e-06 1.89443e-06 6.79748e-06 3.07913e-09 2.46778e-08 1.28669e-07 6.26648e-08 2.96492e-09 1.74642e-08 4.90597e-09 2.25132e-08 2.85922e-08 1.19167e-08 1.02077e-07 2.28598e-07 9.07349e-07 4.60791e-08 2.10522e-06 2.98749e-08 7.39332e-08 1.26535e-08 2.71745e-05 1.57416e-06 8.85431e-10 2.41116e-11 2.48128e-11 1.25846e-10 1.12478e-08 1.38197e-06 2.78209e-08 9.52751e-12 2.7896e-08 2.71614e-08 6.12081e-08 1.14402e-07 2.28671e-07 2.18119e-07 9.14069e-07 3.63589e-06 5.50802e-09 2.98864e-06 1.52781e-06 2.55336e-05 2.47931e-10 8.91805e-07 1.58649e-06 2.19748e-07 3.69523e-09 4.2159e-08 2.2401e-07 9.86283e-07 1.99921e-08 8.57775e-08 1.1442e-07 2.28757e-07 4.57593e-07 9.14104e-07 1.82465e-06 1.16558e-05 1.78654e-07 4.0842e-07 8.55127e-06 3.21747e-08 3.21916e-05 1.09121e-11 4.19397e-06 7.29853e-06 6.07857e-06 2.00364e-05 2.53217e-05 1.61563e-08 1.21388e-08 1.31712e-10 7.99697e-06 1.26489e-13 0.000198163 2.81768e-05 4.25879e-14 1.00064e-13 1.06986e-13 7.035e-14 3.76594e-14 2.06008e-14 2.79361e-14 2.73965e-13 1.37727e-14 9.26456e-13 9.98001e-12 1.2482e-11 1.28943e-14 7.5763e-10 1.88153e-09 1.0616e-11 5.00774e-10 1.85044e-14 1.55176e-08 1.67926e-08 3.17246e-09 6.58386e-08 5.0656e-11 4.60182e-09 2.83065e-08 4.42322e-07 2.21404e-06 4.505e-09 1.3721e-08 4.30459e-14 1.572e-09 7.08341e-08 2.07324e-07 2.73934e-07 4.23995e-07 1.27702e-09 8.84516e-10 6.49327e-09 1.41974e-08 2.83127e-08 1.12408e-07 1.41773e-08 1.23335e-08 2.82753e-08 1.88001e-08 3.70285e-08 1.12254e-07 1.40647e-08 4.14531e-07 1.12994e-07 4.98502e-06 5.29893e-07 2.7471e-07 1.65111e-13 4.52093e-07 7.54805e-09 7.9696e-09 1.29879e-07 1.59653e-09 1.75374e-09 3.36232e-09 1.42157e-08 1.32269e-08 9.7964e-08 4.40033e-07 6.74882e-08 1.12941e-07 8.65342e-08 1.28489e-07 4.43892e-07 1.65458e-06 2.10939e-06 8.23053e-08 1.93228e-07 2.68637e-05 1.0499e-12 2.33245e-08 4.19202e-08 4.28827e-08 5.58202e-08 1.135e-07 4.50825e-07 4.0082e-07 4.38881e-07 5.88364e-07 1.04714e-08 7.74344e-08 8.26501e-06 2.22102e-07 1.37651e-05 1.09827e-11 1.93233e-08 1.19575e-08 2.23333e-11 2.90403e-10 5.8299e-08 5.90341e-09 9.09186e-07 2.20043e-07 2.55117e-10 8.53599e-09 3.84847e-09 3.98346e-08 6.08999e-09 1.13906e-07 2.26003e-07 4.17721e-07 3.17604e-07 1.78929e-06 3.32818e-06 6.074e-06 5.7458e-06 1.51849e-06 1.8081e-10 5.06686e-08 3.96296e-06 6.07792e-08 2.0899e-05 3.83767e-08 4.22993e-09 1.91505e-09 1.18287e-07 8.13152e-13 2.9974e-06 4.47639e-05 0.000221062 0.000184507 1.51939e-05 6.54592e-11 1.02169e-07 1.51939e-05 0.000184507 0.000221062 1.13306e-11 4.47639e-05 5.91728e-13 6.09279e-14 1.67258e-14 2.27854e-14 5.22277e-12 1.34464e-08 2.9974e-06 2.36082e-14 2.6614e-10 1.0083e-10 5.81906e-13 4.68741e-14 3.23553e-13 1.23342e-11 9.71942e-14 9.60854e-14 8.13954e-14 1.91423e-12 4.99596e-13 3.04327e-13 4.03175e-13 3.83517e-12 3.39459e-11 7.58891e-13 9.86478e-13 2.44805e-12 1.74366e-12 2.17804e-12 5.3086e-11 3.42183e-12 9.10497e-12 3.12642e-14 5.375e-12 2.36424e-11 6.13521e-12 6.51833e-12 1.40582e-11 1.00885e-08 2.41166e-06 1.18287e-07 3.15447e-13 1.00957e-12 2.80237e-11 3.83767e-08 6.07792e-08 5.45098e-10 1.80157e-11 4.30903e-10 1.49606e-08 5.77567e-11 3.07075e-09 1.53856e-10 4.67813e-11 6.34105e-09 4.76271e-08 1.63139e-10 7.57915e-08 5.90955e-09 1.08559e-08 3.87042e-08 1.04583e-08 1.12376e-08 2.34849e-08 3.96296e-06 2.0899e-05 4.22993e-09 2.43373e-10 5.09502e-09 2.04272e-08 1.51849e-06 6.074e-06 1.35812e-07 1.04206e-07 4.21566e-07 2.77831e-08 1.63571e-09 2.26003e-07 1.41966e-08 2.84549e-08 1.42537e-08 1.13906e-07 1.78929e-06 2.90403e-10 1.42502e-08 2.84541e-08 2.47939e-10 1.42031e-08 5.14413e-09 1.46813e-10 2.25313e-07 2.81707e-09 1.33537e-08 2.78793e-08 1.42146e-08 5.46735e-08 1.35272e-08 1.28862e-08 3.99861e-10 2.60786e-08 4.09038e-07 1.15676e-08 1.24516e-08 9.62088e-09 2.17443e-09 7.7457e-09 4.38378e-08 4.15672e-09 1.51062e-08 1.72197e-08 6.13011e-08 2.02387e-08 1.84578e-08 3.10777e-09 3.06816e-09 5.10182e-09 3.32818e-06 5.7458e-06 1.8081e-10 1.44432e-10 8.46548e-08 9.8281e-08 5.08369e-08 1.52225e-06 2.78315e-08 1.42051e-08 1.135e-07 1.42285e-08 1.42194e-08 2.8398e-08 5.03267e-09 1.41732e-08 5.15839e-09 7.88713e-09 4.50825e-07 1.03831e-08 1.40247e-08 1.30778e-08 8.49408e-10 2.77348e-08 4.29489e-08 1.07029e-07 2.21243e-08 4.89373e-08 1.92489e-08 2.09019e-08 1.957e-08 1.37651e-05 8.26501e-06 5.65635e-09 3.81033e-08 2.90951e-08 1.5318e-08 3.53674e-08 1.802e-09 2.55164e-09 1.49841e-11 4.76177e-10 2.66849e-08 1.00612e-10 3.72688e-10 3.91207e-10 1.06093e-09 3.2734e-10 2.28683e-08 2.22102e-07 1.09827e-11 3.38825e-09 9.51683e-08 3.78936e-08 2.10939e-06 1.28489e-07 1.17938e-08 1.41944e-08 1.12941e-07 4.43892e-07 1.42157e-08 5.11543e-09 1.59564e-09 5.66574e-08 1.41548e-08 1.21334e-08 2.81788e-08 6.69069e-08 4.40033e-07 1.65458e-06 1.05362e-08 1.9034e-08 7.28889e-08 8.72045e-08 7.96449e-08 1.12049e-08 3.23334e-07 2.87381e-09 2.00037e-08 1.6506e-08 3.23449e-09 3.73239e-11 2.68637e-05 2.45614e-07 2.89714e-10 1.85516e-11 1.06134e-10 5.27893e-12 3.29331e-10 7.04035e-12 8.09968e-13 2.50058e-12 4.71812e-09 1.0499e-12 1.06354e-07 7.40877e-09 4.14531e-07 3.70285e-08 1.41773e-08 2.82753e-08 1.12254e-07 1.41974e-08 1.41777e-08 2.83127e-08 3.74026e-09 5.58802e-09 2.81871e-08 1.12408e-07 4.98502e-06 1.64566e-08 3.44879e-08 1.09153e-07 1.1141e-07 4.9961e-08 5.24502e-10 1.52203e-06 6.41557e-09 8.71427e-09 3.14835e-08 1.10058e-10 1.36211e-05 2.90198e-09 6.91432e-13 2.44552e-12 3.72553e-14 9.4078e-11 1.65111e-13 4.65264e-09 2.83065e-08 3.69983e-08 6.89909e-08 4.42322e-07 3.8949e-07 2.07281e-08 2.21404e-06 3.37422e-09 3.47605e-13 2.53399e-06 3.01434e-11 2.88142e-14 2.03049e-12 4.30459e-14 1.60188e-09 2.3819e-07 4.92179e-14 1.85044e-14 3.82454e-13 1.2482e-11 1.28943e-14 2.73965e-13 1.37727e-14 2.06008e-14 3.76594e-14 7.035e-14 1.06986e-13 1.00064e-13 4.25879e-14 5.36845e-13 2.24554e-08 2.17952e-14 2.81768e-05 4.19909e-11 4.97996e-14 1.52136e-14 1.9461e-09 0.000198163 5.95322e-14 5.21039e-14 1.84339e-07 2.25198e-09 6.13054e-11 4.91239e-11 1.11322e-11 4.3055e-09 9.22639e-06 7.99697e-06 3.56642e-11 2.50788e-14 2.45475e-09 5.5866e-11 1.40946e-10 7.47175e-11 8.34453e-12 5.92148e-09 1.83397e-08 2.53217e-05 6.07857e-06 1.4191e-06 3.43074e-07 1.24985e-07 1.88436e-07 1.50666e-07 4.73694e-08 1.79618e-06 7.29853e-06 2.00364e-05 1.61563e-08 3.5108e-14 5.02269e-14 2.23553e-14 1.78654e-07 2.25061e-11 1.35907e-09 5.46174e-11 1.17809e-09 4.66977e-10 3.70361e-09 6.0983e-10 1.16558e-05 2.16965e-07 8.95414e-07 1.095e-07 5.6958e-08 4.70276e-08 8.98109e-09 1.1427e-07 7.70878e-08 9.14104e-07 2.28757e-07 5.72013e-08 2.0218e-08 1.43023e-08 2.72789e-09 1.13176e-08 1.1442e-07 4.57593e-07 1.82465e-06 3.69519e-09 1.43036e-08 1.95729e-09 1.43032e-08 1.43032e-08 7.44304e-10 5.72079e-08 1.43022e-08 9.82113e-11 1.43008e-08 1.43002e-08 1.08452e-07 1.03369e-08 6.27411e-07 3.82533e-08 1.27665e-05 1.09121e-11 1.64156e-14 5.75668e-13 5.82469e-14 3.03808e-14 1.30871e-14 7.77138e-13 2.58118e-10 1.92366e-13 5.95245e-10 6.21932e-11 2.33924e-10 2.98997e-11 9.55906e-11 2.48128e-11 1.52781e-06 2.55336e-05 8.96228e-10 6.25715e-09 6.23654e-09 7.01718e-09 7.54759e-09 3.90018e-07 1.28664e-07 1.99617e-07 6.79445e-08 1.81647e-08 1.10387e-07 3.78352e-08 3.63589e-06 5.68088e-08 8.22792e-09 2.72851e-08 1.1417e-07 3.42533e-08 2.28671e-07 5.71899e-08 8.8098e-09 1.43005e-08 7.5127e-09 5.37708e-10 1.14402e-07 9.52751e-12 1.43016e-08 1.43005e-08 9.14069e-07 5.46189e-08 1.20059e-08 9.96759e-08 9.76622e-09 2.27312e-07 4.54669e-08 7.52738e-08 2.98864e-06 5.92177e-08 3.65955e-09 1.21138e-09 3.32432e-08 1.62789e-14 4.29841e-14 2.28223e-14 1.60803e-13 2.06952e-13 9.30785e-12 2.15798e-12 1.46967e-11 1.28147e-11 1.40806e-11 1.49471e-11 2.37251e-09 3.47087e-10 4.91578e-12 2.53172e-11 3.59145e-11 3.54459e-11 1.87312e-10 3.84479e-09 4.04678e-07 5.92655e-11 2.38868e-10 5.65465e-11 2.94238e-11 3.02735e-10 3.91244e-09 2.12217e-10 5.02614e-10 1.24719e-09 4.58291e-09 8.63224e-09 1.06752e-07 3.33504e-08 9.93812e-09 1.25679e-08 1.83171e-09 4.57671e-08 2.79057e-07 1.55728e-06 9.48705e-09 3.30864e-08 2.84372e-09 2.34852e-08 1.26777e-09 1.99311e-07 4.26909e-08 5.47623e-08 1.91918e-08 1.39608e-08 1.35125e-08 5.1411e-10 7.52916e-09 9.07349e-07 1.74794e-08 5.81623e-09 2.84533e-08 1.16446e-08 5.70449e-08 1.42694e-08 5.04051e-09 6.56361e-09 2.85668e-08 1.40591e-09 1.42901e-08 2.13919e-09 2.28598e-07 1.42941e-08 1.42965e-08 2.85922e-08 2.96482e-09 1.42979e-08 5.71736e-08 1.42956e-08 1.42952e-08 2.85834e-08 1.42895e-08 2.09757e-05 5.50547e-08 1.42318e-08 1.42439e-08 1.137e-07 8.66305e-10 4.42617e-09 3.40917e-07 5.91877e-09 5.25273e-07 7.06425e-08 1.51907e-08 2.48525e-08 4.91535e-10 4.25446e-11 1.5571e-09 7.05283e-12 2.41116e-11 6.84729e-12 4.47266e-13 7.33857e-12 7.49354e-12 1.38541e-14 3.26448e-11 7.90683e-12 7.92828e-12 1.65087e-11 7.65239e-11 1.17269e-12 8.12254e-12 2.54385e-12 1.4377e-12 2.01146e-13 3.46804e-11 8.18384e-12 1.91817e-12 8.58182e-12 8.3202e-12 4.91584e-10 5.32289e-12 8.77921e-12 8.34207e-12 2.29413e-11 2.54569e-12 1.27717e-11 1.13695e-11 1.99533e-10 1.83118e-12 3.22238e-11 1.67131e-11 1.13937e-10 7.77237e-11 8.26755e-09 1.66695e-09 4.53056e-10 1.28968e-10 1.67071e-10 4.53027e-10 2.79843e-09 2.72828e-08 7.61059e-11 3.30835e-10 6.77314e-12 3.02513e-10 5.13257e-11 2.81671e-09 8.34308e-10 3.81661e-10 1.24157e-09 1.57783e-09 1.56664e-09 4.52567e-08 2.84423e-09 3.50602e-09 8.6649e-09 1.05809e-09 5.6331e-09 3.71404e-09 5.91965e-08 1.85711e-10 8.69258e-09 1.03273e-08 1.10556e-08 4.87003e-09 1.89443e-06 7.47303e-07 4.84876e-08 1.24703e-08 8.12914e-10 8.03622e-09 2.63774e-08 1.078e-07 9.55831e-10 1.35426e-08 3.35967e-09 1.3792e-08 1.39112e-08 2.80012e-08 7.11102e-09 1.41028e-08 1.41498e-08 4.52135e-07 1.80678e-06 6.79748e-06 1.41744e-09 1.42249e-08 3.8722e-09 1.42493e-08 1.42625e-08 1.42718e-08 1.56434e-10 5.70893e-08 1.4281e-08 1.42863e-08 2.85734e-08 1.25174e-09 1.42914e-08 2.28385e-07 1.42874e-08 1.42868e-08 2.85613e-08 1.92148e-11 1.42769e-08 1.42719e-08 1.14063e-07 4.5341e-07 1.42466e-08 1.42165e-08 1.41959e-08 5.64565e-08 1.18908e-08 2.78758e-08 1.09787e-07 1.37884e-08 1.35072e-08 1.33071e-08 2.58832e-08 6.60547e-09 1.50327e-06 1.49673e-09 2.41149e-08 6.77269e-10 2.63867e-09 2.95214e-08 1.52075e-09 1.359e-09 7.93921e-09 2.84259e-10 9.38525e-11 1.73781e-07 6.55758e-11 1.26309e-11 1.08298e-11 9.94342e-14 8.54855e-13 1.13058e-08 1.2965e-08 5.35106e-08 1.35873e-08 2.77318e-08 1.11477e-07 1.40207e-08 1.4103e-08 1.41544e-08 2.83517e-08 1.41914e-08 1.42224e-08 1.42427e-08 4.54145e-07 1.27391e-10 1.42676e-08 1.42762e-08 2.85437e-08 1.42765e-08 1.42739e-08 1.14085e-07 4.92585e-10 1.42577e-08 1.42386e-08 1.42253e-08 1.42061e-08 7.75403e-10 9.02411e-07 2.26821e-07 5.66996e-08 1.41607e-08 1.4123e-08 2.81257e-08 1.115e-07 4.29697e-07 3.9433e-09 1.39592e-08 1.38606e-08 7.80957e-10 5.43425e-08 1.34562e-08 3.4964e-09 1.30489e-08 1.27132e-08 1.22938e-08 4.67456e-10 1.83388e-07 1.14477e-08 1.07866e-08 1.99209e-08 2.12294e-09 8.66106e-09 5.51644e-08 9.40856e-11 5.28736e-09 5.36513e-10 3.9704e-09 3.24273e-09 1.75803e-06 1.67636e-07 8.70814e-09 1.82911e-09 1.43987e-09 2.22241e-09 6.5979e-09 5.24594e-11 7.5768e-10 5.08421e-10 3.89326e-10 5.99678e-10 2.63788e-13 1.97895e-10 1.5101e-10 5.43461e-09 2.0393e-08 1.21383e-07 7.59563e-11 5.12944e-11 3.83133e-11 1.10128e-10 1.93452e-11 1.45721e-11 2.63609e-11 8.66165e-12 2.57685e-10 9.30762e-12 8.43939e-12 1.87982e-11 6.54395e-12 7.5414e-11 4.39657e-10 8.23856e-12 6.07046e-12 3.47694e-11 3.5937e-12 1.13165e-11 7.01367e-11 1.28158e-11 1.59776e-09 1.73184e-11 5.39512e-12 5.37068e-10 3.38985e-09 3.6704e-09 6.39309e-10 1.02145e-09 2.88163e-09 2.78273e-10 5.11019e-11 2.78959e-10 2.39889e-10 1.6267e-10 3.12063e-09 1.15768e-11 1.01366e-10 1.10166e-12 1.55833e-10 4.65548e-11 4.83302e-09 3.92404e-10 6.7536e-11 3.13585e-11 2.52034e-11 1.41213e-10 7.72254e-10 1.17003e-10 2.22066e-10 4.71395e-11 3.58357e-11 1.94386e-11 5.77258e-12 6.05403e-12 7.2532e-09 2.40556e-10 9.65343e-12 2.49398e-13 3.04473e-12 7.53638e-12 1.16322e-12 6.07046e-12 7.85271e-13 1.56044e-13 6.74312e-14 1.78513e-13 6.56766e-13 3.30323e-11 4.16191e-10 6.29281e-14 2.47978e-14 4.29197e-14 5.55054e-14 2.3296e-14 9.66152e-14 1.59765e-14 1.18135e-14 2.91086e-14 1.55688e-13 1.1072e-14 4.68472e-14 1.04373e-14 5.34492e-13 1.02073e-14 4.2473e-14 1.40459e-12 1.67609e-13 1.42988e-14 2.18855e-14 1.67706e-13 4.83496e-13 2.65427e-12 2.29479e-12 9.94465e-12 3.20858e-12 1.20412e-11 5.00136e-13 6.69845e-13 1.67429e-12 5.09631e-13 2.35546e-11 3.12987e-13 1.1659e-13 1.69003e-13 1.46094e-14 7.98779e-14 1.60158e-12 4.48411e-13 6.36451e-14 1.07171e-13 1.13238e-10 2.60413e-12 1.04793e-11 7.0625e-10 4.00868e-10 5.3414e-12 4.12544e-12 1.75107e-12 2.89346e-12 8.71289e-06 6.47748e-11 2.36208e-07 1.87438e-07 7.23496e-07 3.63318e-06 9.09146e-07 5.65538e-07 2.11595e-07 1.8309e-06 7.32335e-06 3.21379e-07 2.28881e-07 3.08391e-08 4.42453e-08 3.54293e-09 3.70815e-07 9.14934e-07 1.92512e-08 1.24131e-07 1.41961e-10 1.77743e-11 1.58755e-11 4.69535e-07 9.72105e-09 1.02572e-09 9.23441e-08 6.43965e-06 3.31071e-08 6.88285e-07 9.14798e-07 6.10296e-08 2.43757e-07 4.98713e-05 9.15493e-07 2.28878e-07 1.04199e-07 2.28879e-07 5.72201e-08 3.95589e-08 1.116e-07 1.83081e-06 2.41447e-09 5.97264e-09 2.66941e-08 5.60803e-08 1.70559e-07 3.42588e-06 5.618e-07 2.02902e-09 3.86733e-11 5.56424e-10 1.84819e-10 2.42097e-11 6.90543e-10 8.51062e-06 6.60513e-08 6.99413e-07 5.30548e-07 2.22734e-07 4.59783e-08 3.65959e-06 1.80029e-07 2.28841e-07 1.89318e-08 6.71464e-08 2.28873e-07 9.30641e-08 5.72195e-08 7.93158e-09 2.03319e-08 2.86099e-08 4.57749e-07 1.20928e-08 1.82369e-08 2.23462e-08 2.29432e-10 5.72177e-08 1.93883e-09 1.01182e-08 1.41724e-05 3.65224e-06 9.15073e-07 1.87501e-07 1.18221e-08 1.64919e-06 8.8453e-07 8.06865e-09 9.45794e-09 3.80533e-11 1.0611e-10 2.23358e-06 3.69383e-07 9.04933e-07 3.83454e-07 3.65444e-06 9.15109e-07 2.28832e-07 7.58933e-08 5.72162e-08 2.53029e-08 2.65969e-08 4.57738e-07 1.83039e-06 4.00575e-09 3.56933e-08 1.43046e-08 1.43046e-08 2.86088e-08 3.16724e-09 7.62105e-09 3.32655e-10 1.81494e-07 1.27417e-08 3.97033e-08 6.13725e-06 1.33066e-06 9.16327e-10 3.48415e-08 1.96488e-07 2.28677e-07 4.8116e-08 5.72035e-08 1.20137e-08 2.10031e-08 2.28828e-07 5.72124e-08 4.34718e-09 2.41323e-08 2.8608e-08 1.14431e-07 4.57671e-07 1.77111e-08 1.43043e-08 8.73677e-09 1.27928e-09 2.86082e-08 6.12721e-09 5.72136e-08 1.12369e-08 2.15106e-08 1.14405e-07 6.28275e-09 1.55632e-06 2.54996e-08 1.42844e-06 1.91451e-07 1.71963e-09 5.03492e-12 6.1428e-10 1.229e-10 7.28778e-12 4.74908e-12 2.18332e-07 9.18418e-08 2.84253e-07 5.58192e-07 6.04514e-07 6.1215e-12 8.3545e-07 7.26421e-07 1.6649e-06 2.58041e-07 6.10178e-07 1.96807e-07 9.15525e-07 1.83095e-06 2.12419e-06 9.5211e-14 2.71355e-06 6.96519e-06 1.42606e-08 8.84636e-08 4.17622e-07 1.77971e-06 5.95386e-08 1.76477e-06 1.83105e-06 3.66205e-06 7.31702e-06 8.61987e-08 4.2716e-12 2.29636e-13 6.10616e-07 2.27915e-06 1.30601e-07 3.69997e-08 1.39354e-07 2.49991e-07 3.87631e-08 3.62267e-06 1.44975e-05 1.72789e-06 3.66208e-06 6.22774e-06 1.46371e-05 8.05884e-07 1.00218e-08 3.42836e-07 1.35001e-07 4.32011e-07 8.34489e-07 2.08319e-07 7.0668e-06 7.32419e-06 1.45782e-05 1.60757e-07 1.58959e-05 1.32394e-12 1.01946e-06 2.28349e-08 4.99339e-07 3.99474e-06 3.06063e-08 3.3152e-07 4.23061e-07 1.02754e-06 3.66211e-06 4.26978e-05 4.83822e-07 1.90662e-05 1.20536e-06 9.56211e-08 4.53167e-07 5.03213e-07 1.43528e-10 1.10834e-07 7.02153e-07 1.03315e-06 1.46483e-05 3.95276e-05 4.54887e-06 1.46039e-05 6.04326e-10 3.17915e-05 2.56481e-11 8.30785e-14 4.11834e-07 3.98279e-06 1.00901e-07 5.70275e-07 8.71214e-07 3.66211e-06 1.46469e-05 2.68022e-05 1.27641e-05 1.46398e-05 8.35851e-07 4.64933e-09 4.83484e-05 1.23852e-07 3.5682e-06 3.38971e-10 7.08068e-11 6.93264e-06 2.04424e-12 2.00222e-07 3.60855e-07 2.20029e-09 6.97771e-08 1.24932e-07 7.59979e-07 3.6608e-06 1.10802e-05 4.31145e-07 9.15522e-07 1.2912e-06 4.26953e-07 3.66187e-06 6.19197e-06 1.46074e-05 5.16477e-05 2.06893e-07 7.99421e-07 0.000116748 4.08644e-10 1.80541e-11 3.79969e-10 1.35442e-05 0.000220779 2.06679e-10 1.12014e-05 0.000456997 1.92758e-14 4.72498e-10 2.23654e-06 0.00041908 0.00051428 1.90281e-06 4.83612e-11 1.69419e-14 7.38304e-14 2.47009e-10 2.8632e-07 5.32784e-05 0.000648741 0.000233473 1.72018e-06 3.09264e-10 3.09264e-10 1.72018e-06 0.000233473 0.000648741 5.32784e-05 2.8632e-07 2.47009e-10 7.38304e-14 1.69419e-14 4.83612e-11 1.90281e-06 0.00051428 0.00041908 2.23654e-06 4.72498e-10 1.92758e-14 4.02891e-13 5.51287e-07 0.000456997 2.51145e-14 1.12014e-05 5.18374e-08 2.06679e-10 2.75681e-13 0.000220779 2.00848e-14 2.33088e-07 1.35442e-05 1.26183e-08 1.74431e-11 4.01322e-08 1.69385e-10 1.49896e-09 1.13224e-06 0.000116748 4.08644e-10 5.16477e-05 1.10802e-05 1.52678e-06 3.6608e-06 5.61024e-07 3.30289e-07 9.68566e-08 4.57762e-07 7.20023e-08 1.46074e-05 3.66187e-06 9.15522e-07 7.1447e-08 8.35844e-08 2.1557e-07 1.74507e-08 4.26953e-07 6.19197e-06 2.06893e-07 6.93264e-06 3.5682e-06 1.70097e-06 7.08068e-11 2.04424e-12 1.25744e-12 5.69297e-14 4.15954e-12 1.25922e-13 1.02453e-05 8.66148e-09 3.73223e-09 7.6076e-08 1.46174e-05 1.51335e-06 5.59295e-06 7.32421e-06 5.27768e-12 1.18335e-13 1.94811e-14 2.68022e-05 4.45827e-08 1.98534e-08 6.78817e-07 1.46469e-05 4.39462e-06 3.66211e-06 1.54298e-06 4.83484e-05 1.46398e-05 3.66209e-06 9.15527e-07 5.2087e-08 7.6688e-08 1.16682e-06 6.19953e-06 4.64933e-09 3.30886e-12 5.3287e-14 4.64668e-14 3.95276e-05 1.18162e-07 1.46483e-05 9.56365e-07 8.13143e-07 9.15527e-07 1.17622e-07 3.17915e-05 1.46039e-05 2.28424e-06 2.14364e-06 4.26978e-05 3.95324e-08 3.66141e-06 3.33306e-07 4.99339e-07 3.66211e-06 7.8528e-07 2.28882e-07 1.63758e-08 2.12348e-07 4.57764e-07 1.12156e-07 1.90662e-05 1.18189e-05 9.49032e-14 1.12615e-08 5.04294e-09 2.09095e-07 1.45782e-05 3.63229e-06 7.12946e-07 2.89065e-06 7.32419e-06 3.42773e-07 5.67012e-07 3.83968e-07 4.17244e-07 5.00599e-09 1.58959e-05 9.15522e-07 2.57193e-08 9.15356e-08 1.22862e-06 1.81073e-06 2.49875e-11 2.29636e-13 3.21869e-10 1.44975e-05 2.8773e-06 9.15429e-07 5.94274e-08 8.55411e-07 1.83105e-06 5.57939e-07 1.46371e-05 3.66208e-06 2.28882e-07 9.42643e-08 3.59542e-07 8.63889e-07 1.00218e-08 3.4716e-14 1.48765e-12 2.44766e-07 3.63905e-06 2.87032e-06 3.66205e-06 9.15523e-07 1.79685e-07 2.71333e-07 4.57763e-07 1.83105e-06 7.31702e-06 1.0279e-07 7.43972e-08 8.44174e-08 2.0881e-07 5.76593e-07 8.75674e-07 1.06894e-07 6.11768e-12 3.30049e-07 1.01383e-06 9.15512e-07 4.59871e-07 9.15525e-07 2.28882e-07 1.3455e-07 4.07602e-07 1.83095e-06 3.76889e-08 1.24855e-07 2.05855e-06 1.01465e-11 9.79882e-08 1.17502e-11 1.15602e-06 1.25925e-09 1.9163e-11 1.35712e-06 5.40354e-06 7.10489e-07 3.66211e-06 5.01283e-06 2.91335e-06 1.23123e-06 7.92259e-06 1.32602e-07 2.961