<?xml version="1.0"?>
<VTKFile type="PolyData" version="0.1" byte_order="LittleEndian">
<PolyData>
<Piece NumberOfPoints="112" NumberOfVerts="112" NumberOfLines="0" NumberOfStrips="0" NumberOfPolys="0">
<Points>
  <DataArray type="Float32" Name="Points" NumberOfComponents="3" format="ascii">19.5 19.9125 0 19.4146 19.9379 0 19.5 19.9375 0 19.5499 19.9499 0 19.4443 19.9625 0 19.5 19.9625 0 19.5347 19.9625 0 19.535 19.9695 0 19.5194 19.9689 0 19.4257 19.9906 0 19.4744 19.9875 0 19.5 19.9875 0 19.5045 19.9875 0 19.4857 19.9875 0 19.4444 19.9838 0 19.4444 20.0162 0 19.4857 20.0125 0 19.5045 20.0125 0 19.5 20.0125 0 19.4744 20.0125 0 19.4257 20.0094 0 19.5194 20.0311 0 19.535 20.0305 0 19.5347 20.0375 0 19.5 20.0375 0 19.4443 20.0375 0 19.5499 20.0501 0 19.5 20.0625 0 19.4146 20.0621 0 19.5 20.0875 0 19.5949 19.9125 0 19.5649 19.9374 0 19.6228 19.9375 0 19.6574 19.9415 0 19.6586 19.9456 0 19.625 19.9457 0 19.5693 19.957 0 19.5824 19.9564 0 19.5836 19.9535 0 19.5836 20.0465 0 19.5824 20.0436 0 19.5693 20.043 0 19.625 20.0543 0 19.6586 20.0544 0 19.6574 20.0585 0 19.6228 20.0625 0 19.5649 20.0626 0 19.5949 20.0875 0 19.775 19.9393 0 19.775 19.9399 0 19.775 19.9373 0 19.775 20.0627 0 19.775 20.0601 0 19.775 20.0607 0 19.925 19.9404 0 19.925 19.9429 0 19.925 19.9424 0 19.925 20.0576 0 19.925 20.0571 0 19.925 20.0596 0 20.0228 19.9486 0 20.0224 19.9482 0 20.0974 19.9543 0 20.1046 19.9544 0 20.1046 20.0456 0 20.0974 20.0457 0 20.0224 20.0518 0 20.0228 20.0514 0 20.225 19.9648 0 20.225 19.9661 0 20.225 19.966 0 20.225 20.034 0 20.225 20.0339 0 20.225 20.0352 0 20.3085 19.9742 0 20.3035 19.9746 0 20.3036 19.9746 0 20.3062 19.9742 0 20.3785 19.9828 0 20.3786 19.9836 0 20.3812 19.9839 0 20.3844 19.984 0 20.387 19.9839 0 20.3864 20.016 0 20.3844 20.016 0 20.3812 20.0161 0 20.3786 20.0164 0 20.3785 20.0172 0 20.3062 20.0258 0 20.3036 20.0254 0 20.3035 20.0254 0 20.3085 20.0258 0 20.5 19.9125 0 20.5 19.9375 0 20.5 19.9625 0 20.5501 19.993 0 20.5507 19.9932 0 20.5527 19.9939 0 20.4777 19.9964 0 20.4757 19.9965 0 20.4751 19.9964 0 20.5 19.9875 0 20.4751 20.0035 0 20.4757 20.0035 0 20.4777 20.0036 0 20.5527 20.0061 0 20.5507 20.0068 0 20.5501 20.0071 0 20.5 20.0125 0 20.5 20.0375 0 20.5 20.0625 0 20.5 20.0875 0 </DataArray>
</Points>
<Verts>
  <DataArray type="Int32" Name="connectivity" format="ascii">0 1 2 3 4 5 6 7 8 9 10 11 12 13 14 15 16 17 18 19 20 21 22 23 24 25 26 27 28 29 30 31 32 33 34 35 36 37 38 39 40 41 42 43 44 45 46 47 48 49 50 51 52 53 54 55 56 57 58 59 60 61 62 63 64 65 66 67 68 69 70 71 72 73 74 75 76 77 78 79 80 81 82 83 84 85 86 87 88 89 90 91 92 93 94 95 96 97 98 99 100 101 102 103 104 105 106 107 108 109 110 111 </DataArray>
  <DataArray type="Int32" Name="offsets" format="ascii">1 2 3 4 5 6 7 8 9 10 11 12 13 14 15 16 17 18 19 20 21 22 23 24 25 26 27 28 29 30 31 32 33 34 35 36 37 38 39 40 41 42 43 44 45 46 47 48 49 50 51 52 53 54 55 56 57 58 59 60 61 62 63 64 65 66 67 68 69 70 71 72 73 74 75 76 77 78 79 80 81 82 83 84 85 86 87 88 89 90 91 92 93 94 95 96 97 98 99 100 101 102 103 104 105 106 107 108 109 110 111 112 </DataArray>
</Verts>
<PointData Scalars="w">
  <DataArray type="Float32" Name="w" NumberOfComponents="1" format="ascii">0.025 0.0379461 0.025 0.000361426 0.0391511 0.025 0.0391511 0.0319143 0.0624062 0.0547815 0.0391511 0.025 0.0391511 0.0729678 0.0905173 0.0905173 0.0729678 0.0391511 0.025 0.0391511 0.0547815 0.0624062 0.0319143 0.0391511 0.025 0.0391511 0.000361426 0.025 0.0379461 0.025 0.0391511 0.0387896 0.0729678 0.0868598 0.0832698 0.150136 0.0410535 0.0660636 0.0675606 0.0675606 0.0660636 0.0410535 0.150136 0.0832698 0.0868598 0.0729678 0.0387896 0.0391511 0.150136 0.150001 0.150104 0.150104 0.150001 0.150136 0.150001 0.150104 0.150295 0.150295 0.150104 0.150001 0.0457398 0.0448847 0.105618 0.0912213 0.0912213 0.105618 0.0448847 0.0457398 0.150502 0.150703 0.150895 0.150895 0.150703 0.150502 0.0171238 0.00705224 0.00733931 0.0124929 0.143843 0.143741 0.13876 0.132388 0.127321 0.128361 0.132388 0.13876 0.143741 0.143843 0.0124929 0.00733931 0.00705224 0.0171238 0.025 0.025 0.025 0.100747 0.099564 0.0953903 0.0558628 0.0518365 0.05068 0.025 0.0507358 0.0518365 0.0558628 0.0953903 0.099564 0.100822 0.025 0.025 0.025 0.025 </DataArray>
</PointData>
</Piece>
</PolyData>
</VTKFile>
