<?xml version="1.0"?>
<VTKFile type="PolyData" version="0.1" byte_order="LittleEndian">
<PolyData>
<Piece NumberOfPoints="17144" NumberOfVerts="17144" NumberOfLines="0" NumberOfStrips="0" NumberOfPolys="0">
<Points>
  <DataArray type="Float32" Name="Points" NumberOfComponents="3" format="ascii">-3.97307 -0.115116 0 -3.9722 -0.115116 0 -3.97617 -0.106338 0 -3.97303 -0.106338 0 -3.97953 -0.0958607 0 -3.97393 -0.0958607 0 -3.98495 -0.0760143 0 -3.97538 -0.0760143 0 -3.98809 -0.0614857 0 -3.97622 -0.0614857 0 -3.99132 -0.0416393 0 -3.97709 -0.0416393 0 -3.98818 -0.0614857 0 -3.97624 -0.0614857 0 -3.99166 -0.0416393 0 -3.97718 -0.0416393 0 -3.9929 -0.0271107 0 -3.97751 -0.0271107 0 -3.99397 -0.00726429 0 -3.9778 -0.00726429 0 -3.97768 -0.0271107 0 -3.97768 0.0271107 0 -3.99397 0.00726429 0 -3.9778 0.00726429 0 -3.9929 0.0271107 0 -3.97751 0.0271107 0 -3.99166 0.0416393 0 -3.97718 0.0416393 0 -3.98818 0.0614857 0 -3.97624 0.0614857 0 -3.99132 0.0416393 0 -3.97709 0.0416393 0 -3.98809 0.0614857 0 -3.97622 0.0614857 0 -3.98495 0.0760143 0 -3.97538 0.0760143 0 -3.97953 0.0958607 0 -3.97393 0.0958607 0 -3.97617 0.106338 0 -3.97303 0.106338 0 -3.97307 0.115116 0 -3.9722 0.115116 0 -3.84409 -0.276399 0 -3.84384 -0.276399 0 -3.84502 -0.275375 0 -3.84409 -0.275375 0 -3.86806 -0.247794 0 -3.85185 -0.267736 0 -3.84592 -0.267736 0 -3.86875 -0.247889 0 -3.85045 -0.247889 0 -3.87969 -0.233361 0 -3.85338 -0.233361 0 -3.89421 -0.213514 0 -3.85727 -0.213514 0 -3.88042 -0.233361 0 -3.85358 -0.233361 0 -3.85762 -0.213514 0 -3.90389 -0.198986 0 -3.85987 -0.198986 0 -3.91596 -0.179139 0 -3.8631 -0.179139 0 -3.86042 -0.198986 0 -3.93352 -0.144764 0 -3.92403 -0.164611 0 -3.86526 -0.164611 0 -3.9341 -0.144764 0 -3.86796 -0.144764 0 -3.93867 -0.133449 0 -3.86918 -0.133449 0 -3.94324 -0.122381 0 -3.87041 -0.122381 0 -3.9448 -0.115116 0 -3.87083 -0.115116 0 -3.9448 -0.106338 0 -3.87083 -0.106338 0 -3.93912 -0.134044 0 -3.8693 -0.134044 0 -3.94332 -0.124602 0 -3.87043 -0.124602 0 -3.87083 -0.117338 0 -3.87083 -0.106933 0 -3.87083 -0.0760143 0 -3.9448 -0.0958607 0 -3.9448 -0.0760143 0 -3.87083 -0.0958607 0 -3.87083 -0.0760143 0 -3.87083 -0.0958607 0 -3.87083 -0.0760143 0 -3.9448 -0.0614857 0 -3.9448 -0.0416393 0 -3.87083 -0.0614857 0 -3.87083 -0.0416393 0 -3.9448 -0.0614857 0 -3.9448 -0.0416393 0 -3.87083 -0.0614857 0 -3.87083 -0.0416393 0 -3.87083 -0.0614857 0 -3.87083 -0.0416393 0 -3.87083 -0.0271107 0 -3.87083 -0.00726429 0 -3.9448 -0.0271107 0 -3.9448 -0.00726429 0 -3.87083 -0.0271107 0 -3.87083 -0.00726429 0 -3.9448 -0.0271107 0 -3.87083 -0.0271107 0 -3.87083 -0.00726429 0 -3.9448 0.0271107 0 -3.87083 0.00726429 0 -3.87083 0.0271107 0 -3.9448 0.00726429 0 -3.9448 0.0271107 0 -3.87083 0.00726429 0 -3.87083 0.0271107 0 -3.87083 0.00726429 0 -3.87083 0.0271107 0 -3.87083 0.0416393 0 -3.87083 0.0614857 0 -3.9448 0.0416393 0 -3.9448 0.0614857 0 -3.87083 0.0416393 0 -3.87083 0.0614857 0 -3.9448 0.0416393 0 -3.9448 0.0614857 0 -3.87083 0.0416393 0 -3.87083 0.0614857 0 -3.87083 0.0760143 0 -3.87083 0.0958607 0 -3.9448 0.0760143 0 -3.9448 0.0958607 0 -3.87083 0.0760143 0 -3.87083 0.0958607 0 -3.87083 0.0760143 0 -3.87083 0.106933 0 -3.87083 0.117338 0 -3.94332 0.124602 0 -3.87043 0.124602 0 -3.93912 0.134044 0 -3.8693 0.134044 0 -3.9448 0.106338 0 -3.87083 0.106338 0 -3.9448 0.115116 0 -3.87083 0.115116 0 -3.94324 0.122381 0 -3.87041 0.122381 0 -3.93867 0.133449 0 -3.86918 0.133449 0 -3.9341 0.144764 0 -3.86796 0.144764 0 -3.92403 0.164611 0 -3.86526 0.164611 0 -3.93352 0.144764 0 -3.86042 0.198986 0 -3.91596 0.179139 0 -3.8631 0.179139 0 -3.90389 0.198986 0 -3.85987 0.198986 0 -3.85762 0.213514 0 -3.88042 0.233361 0 -3.85358 0.233361 0 -3.89421 0.213514 0 -3.85727 0.213514 0 -3.87969 0.233361 0 -3.85338 0.233361 0 -3.86875 0.247889 0 -3.85045 0.247889 0 -3.85185 0.267736 0 -3.84592 0.267736 0 -3.86806 0.247794 0 -3.84502 0.275375 0 -3.84409 0.275375 0 -3.84409 0.276399 0 -3.84384 0.276399 0 -3.72264 -0.364705 0 -3.7175 -0.364705 0 -3.74124 -0.349365 0 -3.72249 -0.349365 0 -3.75555 -0.336486 0 -3.77751 -0.316639 0 -3.73221 -0.316639 0 -3.75626 -0.336486 0 -3.72651 -0.336486 0 -3.73246 -0.316639 0 -3.79211 -0.302486 0 -3.73612 -0.302486 0 -3.81032 -0.283664 0 -3.741 -0.283664 0 -3.81667 -0.276399 0 -3.7427 -0.276399 0 -3.81667 -0.275375 0 -3.7427 -0.275375 0 -3.73633 -0.303163 0 -3.74103 -0.28619 0 -3.7427 -0.278926 0 -3.7427 -0.276052 0 -3.81667 -0.267736 0 -3.81667 -0.247889 0 -3.7427 -0.267736 0 -3.7427 -0.247889 0 -3.7427 -0.267736 0 -3.81667 -0.213514 0 -3.81667 -0.233361 0 -3.81667 -0.213514 0 -3.7427 -0.233361 0 -3.7427 -0.213514 0 -3.81667 -0.198986 0 -3.81667 -0.179139 0 -3.81667 -0.198986 0 -3.81667 -0.179139 0 -3.7427 -0.198986 0 -3.7427 -0.179139 0 -3.81667 -0.164611 0 -3.81667 -0.144764 0 -3.7427 -0.164611 0 -3.7427 -0.144764 0 -3.81667 -0.164611 0 -3.81667 -0.144764 0 -3.7427 -0.164611 0 -3.7427 -0.144764 0 -3.81667 -0.110389 0 -3.81667 -0.130236 0 -3.81667 -0.110389 0 -3.7427 -0.130236 0 -3.7427 -0.110389 0 -3.81667 -0.130236 0 -3.7427 -0.130236 0 -3.7427 -0.110389 0 -3.81667 -0.0760143 0 -3.81667 -0.0958607 0 -3.81667 -0.0760143 0 -3.7427 -0.0958607 0 -3.7427 -0.0760143 0 -3.81667 -0.0958607 0 -3.81667 -0.0760143 0 -3.7427 -0.0958607 0 -3.7427 -0.0760143 0 -3.7427 -0.0958607 0 -3.7427 -0.0760143 0 -3.7427 -0.0416393 0 -3.81667 -0.0614857 0 -3.81667 -0.0416393 0 -3.7427 -0.0416393 0 -3.81667 -0.0614857 0 -3.81667 -0.0416393 0 -3.7427 -0.0614857 0 -3.7427 -0.0416393 0 -3.81667 -0.0614857 0 -3.81667 -0.0416393 0 -3.7427 -0.0614857 0 -3.7427 -0.0416393 0 -3.7427 -0.0614857 0 -3.7427 -0.0416393 0 -3.7427 -0.00726429 0 -3.81667 -0.0271107 0 -3.81667 -0.00726429 0 -3.7427 -0.0271107 0 -3.7427 -0.00726429 0 -3.81667 -0.0271107 0 -3.81667 -0.00726429 0 -3.7427 -0.0271107 0 -3.7427 -0.00726429 0 -3.81667 -0.0271107 0 -3.81667 -0.00726429 0 -3.7427 -0.0271107 0 -3.7427 -0.00726429 0 -3.81667 -0.0271107 0 -3.81667 -0.00726429 0 -3.7427 -0.0271107 0 -3.7427 -0.00726429 0 -3.7427 -0.0271107 0 -3.7427 0.0271107 0 -3.81667 0.00726429 0 -3.81667 0.0271107 0 -3.7427 0.00726429 0 -3.7427 0.0271107 0 -3.81667 0.00726429 0 -3.81667 0.0271107 0 -3.7427 0.00726429 0 -3.7427 0.0271107 0 -3.81667 0.00726429 0 -3.81667 0.0271107 0 -3.7427 0.00726429 0 -3.7427 0.0271107 0 -3.81667 0.00726429 0 -3.81667 0.0271107 0 -3.7427 0.00726429 0 -3.7427 0.0271107 0 -3.7427 0.00726429 0 -3.7427 0.0416393 0 -3.7427 0.0614857 0 -3.81667 0.0416393 0 -3.81667 0.0614857 0 -3.7427 0.0416393 0 -3.7427 0.0614857 0 -3.81667 0.0416393 0 -3.81667 0.0614857 0 -3.7427 0.0416393 0 -3.7427 0.0614857 0 -3.81667 0.0416393 0 -3.81667 0.0614857 0 -3.7427 0.0416393 0 -3.7427 0.0416393 0 -3.7427 0.0760143 0 -3.7427 0.0958607 0 -3.81667 0.0760143 0 -3.81667 0.0958607 0 -3.7427 0.0760143 0 -3.7427 0.0958607 0 -3.81667 0.0760143 0 -3.81667 0.0958607 0 -3.7427 0.0760143 0 -3.7427 0.0958607 0 -3.81667 0.0760143 0 -3.81667 0.130236 0 -3.7427 0.110389 0 -3.7427 0.130236 0 -3.81667 0.110389 0 -3.81667 0.130236 0 -3.7427 0.110389 0 -3.7427 0.130236 0 -3.81667 0.110389 0 -3.81667 0.144764 0 -3.81667 0.164611 0 -3.7427 0.144764 0 -3.7427 0.164611 0 -3.81667 0.144764 0 -3.81667 0.164611 0 -3.7427 0.144764 0 -3.7427 0.164611 0 -3.81667 0.179139 0 -3.81667 0.198986 0 -3.7427 0.179139 0 -3.7427 0.198986 0 -3.81667 0.179139 0 -3.81667 0.198986 0 -3.81667 0.213514 0 -3.81667 0.233361 0 -3.7427 0.213514 0 -3.7427 0.233361 0 -3.81667 0.213514 0 -3.7427 0.267736 0 -3.81667 0.247889 0 -3.81667 0.267736 0 -3.7427 0.247889 0 -3.7427 0.267736 0 -3.7427 0.276052 0 -3.7427 0.278926 0 -3.74103 0.28619 0 -3.73633 0.303163 0 -3.81667 0.275375 0 -3.7427 0.275375 0 -3.81667 0.276399 0 -3.7427 0.276399 0 -3.81032 0.283664 0 -3.741 0.283664 0 -3.79211 0.302486 0 -3.73612 0.302486 0 -3.73246 0.316639 0 -3.75626 0.336486 0 -3.72651 0.336486 0 -3.77751 0.316639 0 -3.73221 0.316639 0 -3.75555 0.336486 0 -3.74124 0.349365 0 -3.72249 0.349365 0 -3.72264 0.364705 0 -3.7175 0.364705 0 -3.59727 -0.435527 0 -3.62284 -0.41867 0 -3.59697 -0.41867 0 -3.59729 -0.436033 0 -3.59012 -0.436033 0 -3.6233 -0.418806 0 -3.59709 -0.418806 0 -3.64215 -0.405236 0 -3.60214 -0.405236 0 -3.66914 -0.385389 0 -3.60938 -0.385389 0 -3.60239 -0.405236 0 -3.60987 -0.385389 0 -3.68073 -0.376476 0 -3.61248 -0.376476 0 -3.68647 -0.37197 0 -3.61402 -0.37197 0 -3.68855 -0.364705 0 -3.61458 -0.364705 0 -3.68855 -0.349365 0 -3.61458 -0.349365 0 -3.68855 -0.336486 0 -3.68855 -0.316639 0 -3.61458 -0.336486 0 -3.61458 -0.316639 0 -3.68855 -0.282264 0 -3.68855 -0.302111 0 -3.68855 -0.282264 0 -3.61458 -0.302111 0 -3.61458 -0.282264 0 -3.68855 -0.267736 0 -3.68855 -0.247889 0 -3.68855 -0.267736 0 -3.68855 -0.247889 0 -3.61458 -0.267736 0 -3.61458 -0.247889 0 -3.68855 -0.233361 0 -3.68855 -0.213514 0 -3.61458 -0.213514 0 -3.68855 -0.233361 0 -3.68855 -0.213514 0 -3.61458 -0.233361 0 -3.61458 -0.213514 0 -3.68855 -0.198986 0 -3.68855 -0.179139 0 -3.61458 -0.198986 0 -3.61458 -0.179139 0 -3.68855 -0.198986 0 -3.68855 -0.179139 0 -3.61458 -0.198986 0 -3.61458 -0.179139 0 -3.68855 -0.144764 0 -3.68855 -0.164611 0 -3.68855 -0.144764 0 -3.61458 -0.164611 0 -3.61458 -0.144764 0 -3.68855 -0.164611 0 -3.68855 -0.144764 0 -3.61458 -0.164611 0 -3.61458 -0.144764 0 -3.68855 -0.130236 0 -3.68855 -0.110389 0 -3.68855 -0.130236 0 -3.68855 -0.110389 0 -3.61458 -0.130236 0 -3.61458 -0.110389 0 -3.61458 -0.130236 0 -3.61458 -0.110389 0 -3.68855 -0.0760143 0 -3.68855 -0.0958607 0 -3.68855 -0.0760143 0 -3.61458 -0.0958607 0 -3.61458 -0.0760143 0 -3.68855 -0.0958607 0 -3.68855 -0.0760143 0 -3.61458 -0.0958607 0 -3.61458 -0.0760143 0 -3.61458 -0.0958607 0 -3.61458 -0.0760143 0 -3.68855 -0.0416393 0 -3.68855 -0.0614857 0 -3.68855 -0.0416393 0 -3.68855 -0.0614857 0 -3.68855 -0.0416393 0 -3.61458 -0.0614857 0 -3.61458 -0.0416393 0 -3.68855 -0.0614857 0 -3.68855 -0.0416393 0 -3.61458 -0.0614857 0 -3.61458 -0.0416393 0 -3.61458 -0.0614857 0 -3.61458 -0.0416393 0 -3.68855 -0.00726429 0 -3.61458 -0.00726429 0 -3.68855 -0.0271107 0 -3.68855 -0.00726429 0 -3.61458 -0.00726429 0 -3.68855 -0.0271107 0
[...]
<PointData Scalars="w">
  <DataArray type="Float32" Name="w" NumberOfComponents="1" format="ascii">5.77641e-06 5.77641e-06 2.06916e-05 2.06916e-05 8.33943e-05 8.33943e-05 0.000142473 0.000142473 1.57587e-11 1.4292e-12 0.000211883 0.00021122 0.000177692 0.000177692 1.4988e-08 6.74595e-07 0.000229067 0.000229067 0.000240792 0.000240792 2.55025e-14 2.55025e-14 0.000240792 0.000240792 0.000229067 0.000229067 1.4988e-08 6.74595e-07 0.000177692 0.000177692 0.000211883 0.00021122 1.57587e-11 1.4292e-12 0.000142473 0.000142473 8.33943e-05 8.33943e-05 2.06916e-05 2.06916e-05 5.77641e-06 5.77641e-06 1.91907e-07 1.91907e-07 7.14883e-07 7.14883e-07 3.20366e-09 8.82292e-05 8.82292e-05 0.000272416 0.000272421 0.000391562 6.70931e-09 0.00054986 0.000549783 9.73013e-10 0.000399618 5.94874e-08 0.000655354 0.000655354 0.000786846 0.000786846 2.22291e-13 6.38072e-08 0.000874739 0.000874739 0.000984399 0.000984489 0.0005744 9.95031e-14 0.000604565 2.19479e-10 0.000487014 2.14852e-08 0.000487014 4.79642e-06 2.83181e-06 0.000494386 1.24029e-11 0.000516129 0.000577246 0.000573265 3.45989e-14 0.00110107 0.00110107 0.000889255 0.00110106 0.000211819 1.11604e-08 2.08447e-12 0.000207054 2.96211e-11 4.50008e-07 0.00110107 0.00089402 0.00110107 0.00110062 2.2624e-11 2.06152e-14 8.69862e-14 4.99157e-10 0.00110106 0.00110107 0.000350689 0.00110083 1.09643e-08 0.000750386 2.42157e-07 1.09643e-08 2.42157e-07 0.000750386 0.00110107 0.00110106 0.00110083 0.000350689 4.99157e-10 8.69862e-14 2.06152e-14 2.2624e-11 0.00089402 0.00110107 0.00110062 0.00110107 0.000207054 2.08447e-12 4.50008e-07 2.96211e-11 1.11604e-08 0.000211819 0.00110107 0.00110107 0.00110106 0.000889255 3.45989e-14 0.000573265 0.000577246 1.24029e-11 0.000516129 2.83181e-06 0.000494386 0.000487014 4.79642e-06 0.000487014 2.14852e-08 0.000604565 2.19479e-10 0.0005744 9.95031e-14 0.000984399 0.000984489 0.000874739 0.000874739 6.38072e-08 2.22291e-13 0.000786846 0.000786846 0.000655354 0.000655354 5.94874e-08 9.73013e-10 0.000399618 0.00054986 0.000549783 0.000391562 6.70931e-09 0.000272416 0.000272421 8.82292e-05 8.82292e-05 3.20366e-09 7.14883e-07 7.14883e-07 1.91907e-07 1.91907e-07 5.90664e-05 5.90664e-05 0.000215711 0.000215711 7.33455e-07 0.000674366 1.89516e-10 0.000441195 0.000442756 0.000684437 0.000790419 0.000128559 0.000978598 0.000978597 5.6839e-05 5.6839e-05 5.6839e-05 5.6839e-05 0.000625654 2.6767e-09 2.36511e-12 5.80497e-13 0.00110107 0.00110107 0.00110107 0.00110107 9.21435e-14 3.70873e-12 0.00110107 0.00110107 0.00110107 0.00110107 9.82765e-08 0.001024 0.00110098 7.70782e-05 0.00110107 0.00110107 0.00110102 0.00110107 2.28037e-12 6.67958e-09 5.70667e-08 1.61908e-11 0.00110107 0.00110107 1.3352e-11 0.00110107 0.00110107 1.33274e-06 0.000490935 1.25976e-13 0.00109974 0.00061014 1.84856e-14 7.74076e-09 2.62297e-05 1.27563e-12 4.86284e-10 0.00110107 0.00107484 0.00108178 0.00110096 1.92928e-05 1.13228e-07 1.46832e-14 8.84543e-11 1.01748e-07 2.68685e-10 0.000939856 0.00110075 3.23338e-08 7.63663e-06 0.000161218 2.23116e-07 0.00110104 0.00109344 3.9779e-09 6.805e-11 2.50762e-08 2.30708e-11 6.63206e-07 5.02334e-10 2.58177e-05 1.6007e-05 0.0010225 3.43309e-07 0.000163033 0.00108506 7.79156e-05 0.000258344 0.000889113 2.7281e-09 9.88726e-13 0.000842386 2.30849e-05 3.73941e-12 3.73941e-12 9.88726e-13 2.7281e-09 2.30849e-05 0.000842386 7.79156e-05 0.00108506 0.000889113 0.000258344 0.0010225 1.6007e-05 0.000163033 3.43309e-07 6.63206e-07 2.30708e-11 2.58177e-05 5.02334e-10 2.50762e-08 6.805e-11 3.9779e-09 2.23116e-07 0.000161218 0.00109344 0.00110104 0.00110075 0.000939856 7.63663e-06 3.23338e-08 1.01748e-07 8.84543e-11 2.68685e-10 1.46832e-14 1.13228e-07 1.92928e-05 0.00107484 0.00110107 0.00110096 0.00108178 2.62297e-05 7.74076e-09 4.86284e-10 1.27563e-12 1.84856e-14 1.25976e-13 0.00061014 0.00109974 0.00110107 0.00110107 0.000490935 1.33274e-06 1.3352e-11 1.61908e-11 5.70667e-08 0.00110107 0.00110107 0.00110107 0.00110102 6.67958e-09 2.28037e-12 7.70782e-05 0.00110098 0.00110107 0.00110107 0.001024 9.82765e-08 0.00110107 0.00110107 0.00110107 0.00110107 3.70873e-12 9.21435e-14 0.00110107 0.00110107 0.00110107 0.00110107 5.80497e-13 2.36511e-12 2.6767e-09 0.000625654 5.6839e-05 5.6839e-05 5.6839e-05 5.6839e-05 0.000978598 0.000978597 0.000790419 0.000128559 0.000684437 0.000441195 0.000442756 0.000674366 1.89516e-10 7.33455e-07 0.000215711 0.000215711 5.90664e-05 5.90664e-05 5.13107e-14 0.000327108 3.58274e-09 9.25856e-05 9.25856e-05 4.39356e-12 0.000338599 0.000595484 0.000539696 0.000889593 0.000889593 4.40721e-05 5.13563e-13 0.000230647 0.000230647 0.000244848 0.000244848 0.000851076 0.000851076 0.000851076 0.000851076 0.00110107 0.00110107 0.00110107 0.00110107 1.82927e-14 0.00110107 0.00110107 0.00110107 0.00110107 7.11001e-11 1.2847e-06 0.00110107 0.00109979 0.00110107 0.00110107 0.0003937 0.0010996 1.54063e-14 0.000707374 1.47412e-06 0.00110107 0.00110107 0.00110106 0.00110107 2.38436e-12 1.26377e-09 1.6574e-08 8.85611e-11 0.00110107 0.00110107 2.13139e-14 0.00110107 0.00110107 8.14942e-08 1.3952e-05 3.36048e-12 7.22901e-14 0.00110099 0.00108712 2.24088e-12 8.75375e-10 0.00110107 0.00110107 0.000308952 0.00106114 0.000792122 3.99319e-05 4.13877e-14 5.11021e-08 8.65134e-06 1.39955e-13 1.33082e-11 0.00110102 0.00109242 0.00109855 0.001101 2.51925e-06 7.8818e-08 3.96034e-13 3.45737e-11 1.67341e-08 0.000222381 0.00104736 3.18921e-10 1.95687e-08 0.000878693 5.36944e-05 0.00110107 0.00110105 7.86595e-09 4.47659e-10 1.77027e-11 6.05085e-07 2.67054e-13 2.78534e-06 9.09515e-08 7.76324e-12 1.7006e-06 4.2029e-11 2.20157e-10 9.21724e-07 2.36764e-12 4.64024e-07 3.2703e-05 3.26573e-13 4.65135e-10 0.00109756 0.00106289 3.37827e-07 1.30771e-05 3.05487e-06 7.74468e-08 0.00110074 0.0010873 6.60447e-11 5.97608e-12 5.97608e-12 6.60447e-11 7.74468e-08 3.05487e-06 0.0010873 0.00110074 0.00106289 0.00109756 1.30771e-05 3.37827e-07 3.2703e-05 4.64024e-07 4.65135e-10 3.26573e-13 9.21724e-07 2.20157e-10 2.36764e-12 1.7006e-06 7.76324e-12 4.2029e-11 2.78534e-06 2.67054e-13 9.09515e-08 1.77027e-11 6.05085e-07 4.47659e-10 7.86595e-09 5.36944e-05 0.000878693 0.00110105 0.00110107 0.00104736 0.000222381 1.95687e-08 3.18921e-10 1.67341e-08 3.45737e-11 3.96034e-13 7.8818e-08 2.51925e-06 0.00109242 0.00110102 0.001101 0.00109855 8.65134e-06 5.11021e-08 1.33082e-11 1.39955e-13 4.13877e-14 3.99319e-05 0.000792122 0.00110107 0.00110107 0.00106114 0.000308952 8.75375e-10 2.24088e-12 7.22901e-14 3.36048e-12 0.00108712 0.00110099 0.00110107 0.00110107 1.3952e-05 8.14942e-08 2.13139e-14 8.85611e-11 1.6574e-08 0.00110107 0.00110107 0.00110107 0.00110106 1.26377e-09 2.38436e-12 1.47412e-06 0.000707374 0.00110107 0.00110107 0.0010996 0.0003937 1.54063e-14 0.00109979 0.00110107 0.00110107 0.00110107 1.2847e-06 7.11001e-11 0.00110107 0.00110107 0.00110107 0.00110107 1.82927e-14 0.00110107 0.00110107 0.00110107 0.00110107 0.000851076 0.000851076 0.000851076 0.000851076 0.000244848 0.000244848 0.000230647 0.000230647 5.13563e-13 4.40721e-05 0.000889593 0.000889593 0.000595484 0.000539696 4.39356e-12 0.000338599 9.25856e-05 9.25856e-05 0.000327108 3.58274e-09 5.13107e-14 5.26797e-05 5.26797e-05 0.000193106 0.000193106 0.000539301 0.000539301 0.000896937 0.000896937 0.000137239 0.000137239 0.000143165 0.000143165 0.00095575 0.00095575 0.00095575 0.00095575 0.00110107 0.00110107 0.00110107 0.00110107 5.4606e-12 1.41264e-07 0.00110107 0.00110093 0.00110107 0.00110107 8.14748e-05 0.00109369 0.0010196 7.38669e-06 0.00110107 0.00110107 0.00110101 0.00110107 2.40001e-14 6.88101e-08 3.00312e-10 0.00110107 0.00110107 0.00110107 0.00110107 3.04619e-12 1.18287e-09 1.02354e-11 1.99074e-13 0.00110107 0.00110107 0.00110107 0.00110107 6.01434e-08 7.52751e-06 1.68345e-14 0.00110101 0.00109355 0.00110107 0.00110107 0.000158012 0.000986605 0.000943062 0.000114469 1.7226e-14 3.06791e-12 0.00110107 0.00110107 0.00109176 0.0011007 9.31231e-06 3.69228e-07 1.04743e-10 9.23079e-09 0.00110107 0.00110106 0.00110103 0.00110107 4.28671e-08 2.93055e-09 1.929e-07 8.97246e-06 3.27907e-14 1.55491e-12 0.00110088 0.0010921 0.00110107 0.00110107 4.8695e-10 5.14576e-11 2.56424e-14 8.46751e-12 0.000110518 0.000827849 2.2609e-11 7.19712e-10 0.000990556 0.000273225 0.00110107 0.00110107 1.13542e-11 1.69521e-12 3.51436e-10 3.14709e-07 1.1756e-06 4.19784e-10 6.41027e-11 1.5599e-10 5.24192e-09 0.00106369 0.00109764 7.89086e-09 1.73402e-07 3.73833e-05 2.25771e-06 0.00110107 0.00110059 4.68925e-13 9.22958e-14 9.22958e-14 4.68925e-13 2.25771e-06 3.73833e-05 0.00110059 0.00110107 0.00109764 0.00106369 1.73402e-07 7.89086e-09 5.24192e-09 1.5599e-10 6.41027e-11 1.1756e-06 4.19784e-10 3.51436e-10 3.14709e-07 1.69521e-12 1.13542e-11 0.000273225 0.000990556 0.00110107 0.00110107 0.000827849 0.000110518 7.19712e-10 2.2609e-11 8.46751e-12 2.56424e-14 5.14576e-11 4.8695e-10 0.0010921 0.00110088 0.00110107 0.00110107 8.97246e-06 1.929e-07 1.55491e-12 3.27907e-14 2.93055e-09 4.28671e-08 0.00110106 0.00110107 0.00110107 0.00110103 9.23079e-09 1.04743e-10 3.69228e-07 9.31231e-06 0.00110107 0.00110107 0.0011007 0.00109176 3.06791e-12 1.7226e-14 0.000114469 0.000943062 0.00110107 0.00110107 0.000986605 0.000158012 1.68345e-14 0.00109355 0.00110101 0.00110107 0.00110107 7.52751e-06 6.01434e-08 1.99074e-13 1.02354e-11 0.00110107 0.00110107 0.00110107 0.00110107 1.18287e-09 3.04619e-12 3.00312e-10 6.88101e-08 0.00110107 0.00110107 0.00110107 0.00110101 2.40001e-14 7.38669e-06 0.0010196 0.00110107 0.00110107 0.00109369 8.14748e-05 0.00110093 0.00110107 0.00110107 0.00110107 1.41264e-07 5.4606e-12 0.00110107 0.00110107 0.00110107 0.00110107 0.00095575 0.00095575 0.00095575 0.00095575 0.000143165 0.000143165 0.000137239 0.000137239 0.000896937 0.000896937 0.000539301 0.000539301 0.000193106 0.000193106 5.26797e-05 5.26797e-05 1.77371e-06 1.77371e-06 6.60214e-06 6.60214e-06 0.000243844 0.000243844 0.000674722 0.000674722 1.55219e-11 0.000409297 0.000663873 0.000663874 0.000342887 0.000342887 4.77746e-06 0.000404003 4.9674e-10 0.000674953 1.79376e-12 0.000674953 0.00110107 0.00110107 1.96152e-14 0.00110107 0.00110107 0.00110107 0.00110107 4.35727e-14 0.00110107 0.00110107 0.00110107 0.00110107 1.78533e-11 2.51207e-08 0.00110107 0.00110105 0.00110107 0.00110107 2.65582e-06 0.000434089 0.00109842 0.000666985 0.00110107 0.00110107 0.00105656 0.00110046 4.4514e-05 6.13367e-07 0.00110107 0.00110107 0.00110104 0.00110107 3.76036e-08 1.28264e-09 0.00110107 0.00110107 0.00110107 0.00110107 1.42667e-10 9.81245e-12 3.14489e-14 0.00110107 0.00110107 0.00110107 0.00110107 1.69847e-12 1.96932e-13 1.12012e-12 1.01715e-10 0.00110107 0.00110107 0.00110107 0.00110107 4.74658e-14 2.14336e-09 1.00459e-07 0.00110107 0.00110097 0.00110107 0.00110107 1.35577e-06 3.53286e-05 2.57739e-13 0.00109972 0.00106575 0.00110107 0.00110107 0.00025985 0.000924267 3.18236e-12 8.10972e-11 0.000841224 0.000176808 0.00110107 0.00110107 8.7847e-14 0.00107113 0.00109841 7.58153e-10 1.35125e-08 2.99471e-05 2.66587e-06 0.00110107 0.00110106 6.64365e-12 1.74146e-07 5.18298e-07 1.19958e-09 8.40989e-14 9.38475e-13 2.06137e-11 0.00110057 0.0011005 9.88063e-08 1.2845e-06 5.04603e-07 6.03074e-08 0.00110098 0.00109961 6.03074e-08 5.04603e-07 0.00109961 0.00110098 0.0011005 0.00110057 1.2845e-06 9.88063e-08 2.06137e-11 9.38475e-13 8.40989e-14 5.18298e-07 1.19958e-09 6.64365e-12 1.74146e-07 2.66587e-06 2.99471e-05 0.00110106 0.00110107 0.00109841 0.00107113 1.35125e-08 7.58153e-10 8.7847e-14 0.000176808 0.000841224 0.00110107 0.00110107 0.000924267 0.00025985 8.10972e-11 3.18236e-12 0.00106575 0.00109972 0.00110107 0.00110107 3.53286e-05 1.35577e-06 2.57739e-13 0.00110097 0.00110107 0.00110107 0.00110107 1.00459e-07 2.14336e-09 4.74658e-14 0.00110107 0.00110107 0.00110107 0.00110107 1.01715e-10 1.12012e-12 1.96932e-13 1.69847e-12 0.00110107 0.00110107 0.00110107 0.00110107 3.14489e-14 9.81245e-12 1.42667e-10 0.00110107 0.00110107 0.00110107 0.00110107 1.28264e-09 3.76036e-08 0.00110107 0.00110107 0.00110107 0.00110104 6.13367e-07 4.4514e-05 0.00110107 0.00110107 0.00110046 0.00105656 0.000666985 0.00109842 0.00110107 0.00110107 0.000434089 2.65582e-06 0.00110105 0.00110107 0.00110107 0.00110107 2.51207e-08 1.78533e-11 0.00110107 0.00110107 0.00110107 0.00110107 4.35727e-14 1.96152e-14 0.00110107 0.00110107 0.00110107 0.00110107 1.79376e-12 0.000674953 4.9674e-10 0.000674953 4.77746e-06 0.000404003 0.000342887 0.000342887 0.000663874 0.000663873 0.000409297 1.55219e-11 0.000674722 0.000674722 0.000243844 0.000243844 6.60214e-06 6.60214e-06 1.77371e-06 1.77371e-06 2.6479e-05 2.13299e-07 0.000121865 0.000120737 6.61409e-06 3.38459e-05 1.03509e-06 0.000472706 0.000472706 0.000852634 0.000852634 0.000113877 0.000113877 0.000113877 0.000113877 7.91586e-11 0.00110107 0.00110107 0.00110107 0.00110107 0.00110107 0.00110107 0.00110107 0.00110107 0.00110107 0.00110107 0.00110107 0.00110107 0.00110107 0.00110107 0.00110107 0.00110107 0.00110107 0.00110107 0.00110107 0.00110107 0.00110107 0.00110107 0.00110107 0.00110107 1.45575e-12 0.00110107 0.00110107 0.00110107 0.00110107 6.54854e-11 7.31693e-09 0.00110107 0.00110107 0.00110107 0.00110107 1.68024e-07 8.20074e-06 0.00110091 0.00109287 0.00110107 0.00110107 0.000100849 0.000793479 2.17021e-14 0.00100022 0.000307595 0.00110107 0.00110107 0.00105448 0.00109789 3.50396e-13 1.21633e-11 4.65934e-05 3.1888e-06 0.00110107 0.00110107 0.00110056 0.00110102 1.37491e-10 3.04465e-09 5.11831e-07 5.09985e-08 0.00110107 0.00110107 0.00110106 0.00110107 2.54098e-08 3.83924e-07 1.07246e-08 1.49238e-09 0.00110105 0.00110069 0.00110107 0.00110107 2.47191e-06 2.64252e-05 3.91142e-10 7.13991e-11 0.0010986 0.00107465 1.23926e-14 2.50873e-13 0.00110107 0.00110107 0.000124471 0.000565861 2.23921e-11 5.10416e-12 0.000976603 0.000535213 3.74162e-09 2.47152e-07 4.09618e-07 4.69026e-14 2.04188e-12 3.12162e-11 0.00110107 0.00110083 0.000902643 0.00106496 1.85529e-12 5.07929e-13 0.000198431 3.56998e-05 5.07929e-13 1.85529e-12 3.56998e-05 0.000198431 0.00110083 0.00110107 0.00106496 0.000902643 3.12162e-11 2.04188e-12 4.69026e-14 2.47152e-07 4.09618e-07 3.74162e-09 5.10416e-12 2.23921e-11 0.000535213 0.000976603 0.00110107 0.00110107 0.000565861 0.000124471 2.50873e-13 1.23926e-14 7.13991e-11 3.91142e-10 0.00107465 0.0010986 0.00110107 0.00110107 2.64252e-05 2.47191e-06 1.49238e-09 1.07246e-08 0.00110069 0.00110105 0.00110107 0.00110106 3.83924e-07 2.54098e-08 5.09985e-08 5.11831e-07 0.00110107 0.00110107 0.00110102 0.00110056 3.04465e-09 1.37491e-10 3.1888e-06 4.65934e-05 0.00110107 0.00110107 0.00109789 0.00105448 1.21633e-11 3.50396e-13 0.000307595 0.00100022 0.00110107 0.00110107 0.000793479 0.000100849 2.17021e-14 0.00109287 0.00110091 0.00110107 0.00110107 8.20074e-06 1.68024e-07 0.00110107 0.00110107 0.00110107 0.00110107 7.31693e-09 6.54854e-11 0.00110107 0.00110107 0.00110107 0.00110107 1.45575e-12 0.00110107 0.00110107 0.00110107 0.00110107 0.00110107 0.00110107 0.00110107 0.00110107 0.00110107 0.00110107 0.00110107 0.00110107 0.00110107 0.00110107 0.00110107 0.00110107 0.00110107 0.00110107 0.00110107 0.00110107 0.00110107 0.00110107 0.00110107 0.00110107 7.91586e-11 0.000113877 0.000113877 0.000113877 0.000113877 0.000852634 0.000852634 0.000472706 0.000472706 1.03509e-06 6.61409e-06 3.38459e-05 0.000121865 0.000120737 2.6479e-05 2.13299e-07 7.56196e-05 7.56196e-05 0.000277836 0.000277836 0.000396567 0.000396567 0.000569437 0.000569437 0.000469501 0.000469501 0.000469501 0.000469501 1.23797e-13 0.00110107 0.00110107 0.00110107 0.00110107 6.34142e-11 1.66539e-07 0.00110107 0.00110091 0.00110107 0.00110107 2.92521e-05 0.00103045 0.00107182 7.06202e-05 0.00110107 0.00110107 0.00109972 0.00110106 1.35047e-06 1.14003e-08 0.00110107 0.00110107 0.00110107 0.00110107 5.5221e-10 1.53236e-11 0.00110107 0.00110107 0.00110107 0.00110107 1.44941e-12 1.57356e-12 1.04845e-13 0.00110107 0.00110107 0.00110107 0.00110107 4.87463e-11 3.81735e-09 1.85434e-14 0.00110107 0.00110107 0.00110107 0.00110107 6.95166e-08 2.57156e-06 0.001101 0.0010985 0.00110107 0.00110107 2.80863e-05 0.00038407 0.00107299 0.000717004 0.00110107 0.00110107 0.000883612 0.00108021 0.000217462 2.08605e-05 0.00110107 0.00110107 0.00109727 0.00110064 3.80872e-06 4.38197e-07 0.00110107 0.00110107 0.00110097 0.00110106 1.01104e-07 1.57587e-08 0.00110107 0.00110107 0.00110107 0.00110107 4.44988e-09 8.90299e-10 1.6071e-14 3.3471e-13 0.00110107 0.00110107 0.00110107 0.00110107 2.96647e-10 7.28725e-11 2.73902e-12 4.14802e-11 0.00110107 0.00110107 0.00110107 0.00110107 2.78354e-11 8.10613e-12 2.72816e-10 3.12423e-09 0.00110107 0.00110107 0.00110107 0.00110107 3.4693e-12 1.16475e-12 1.38938e-07 1.97731e-07 8.81803e-11 1.69679e-08 1.521e-07 4.13037e-14 0.00110106 0.00110078 0.00110107 0.00110088 5.48432e-13 2.07536e-13 2.07536e-13 5.48432e-13 0.00110078 0.00110106 0.00110088 0.00110107 1.521e-07 1.69679e-08 4.13037e-14 8.81803e-11 1.38938e-07 1.97731e-07 1.16475e-12 3.4693e-12 0.00110107 0.00110107 0.00110107 0.00110107 3.12423e-09 2.72816e-10 8.10613e-12 2.78354e-11 0.00110107 0.00110107 0.00110107 0.00110107 4.14802e-11 2.73902e-12 7.28725e-11 2.96647e-10 0.00110107 0.00110107 0.00110107 0.00110107 3.3471e-13 1.6071e-14 8.90299e-10 4.44988e-09 0.00110107 0.00110107 0.00110107 0.00110107 1.57587e-08 1.01104e-07 0.00110107 0.00110107 0.00110106 0.00110097 4.38197e-07 3.80872e-06 0.00110107 0.00110107 0.00110064 0.00109727 2.08605e-05 0.000217462 0.00110107 0.00110107 0.00108021 0.000883612 0.000717004 0.00107299 0.00110107 0.00110107 0.00038407 2.80863e-05 0.0010985 0.001101 0.00110107 0.00110107 2.57156e-06 6.95166e-08 1.85434e-14 0.00110107 0.00110107 0.00110107 0.00110107 3.81735e-09 4.87463e-11 1.04845e-13 1.57356e-12 0.00110107 0.00110107 0.00110107 0.00110107 1.44941e-12 1.53236e-11 5.5221e-10 0.00110107 0.00110107 0.00110107 0.00110107 1.14003e-08 1.35047e-06 0.00110107 0.00110107 0.00110106 0.00109972 7.06202e-05 0.00107182 0.00110107 0.00110107 0.00103045 2.92521e-05 0.00110091 0.00110107 0.00110107 0.00110107 1.66539e-07 6.34142e-11 0.00110107 0.00110107 0.00110107 0.00110107 1.23797e-13 0.000469501 0.000469501 0.000469501 0.000469501 0.000569437 0.000569437 0.000396567 0.000396567 0.000277836 0.000277836 7.56196e-05 7.56196e-05 6.87011e-05 6.3485e-10 0.000373911 0.000371005 3.3339e-05 0.000103588 2.55216e-06 0.00031211 0.00031211 0.000402318 0.000402318 0.000666223 0.000666223 0.000666223 0.000666223 1.54595e-10 2.15117e-14 0.00110107 0.00110107 0.00110107 0.00110107 0.00110107 0.00110107 0.00110107 0.00110107 0.00110107 0.00110107 0.00110107 0.00110107 0.00110107 0.00110107 0.00110107 0.00110107 0.00110107 0.00110107 0.00110107 0.00110107 0.00110107 0.00110107 0.00110107 0.00110107 0.00110107 0.00110107 0.00110107 0.00110107 0.00110107 0.00110107 0.00110107 0.00110107 0.00110107 0.00110107 0.00110107 0.00110107 2.15061e-13 0.00110107 0.00110107 0.00110107 0.00110107 2.96567e-12 8.3e-11 0.00110107 0.00110107 0.00110107 0.00110107 8.0289e-10 1.44382e-08 0.00110107 0.00110106 0.00110107 0.00110107 1.03907e-07 1.29026e-06 0.00110097 0.00109978 0.00110107 0.00110107 7.21331e-06 6.24872e-05 4.81602e-14 0.00109386 0.00103859 0.00110107 0.00110107 0.000237356 0.000725638 3.32819e-13 4.06575e-12 0.000863718 0.000375436 0.00110107 0.00110107 0.000970157 0.00107536 2.31066e-11 2.19914e-10 0.000130917 2.5712e-05 0.00110107 0.00110107 0.00109317 0.00109938 1.0536e-09 8.0621e-09 7.90812e-06 1.69918e-06 0.00110107 0.00110107 1.37172e-11 1.17949e-07 2.6932e-07 8.15443e-11 0.00110049 0.00110066 3.32653e-08 2.10231e-07 5.8406e-07 1.46465e-07 0.00110104 0.00110075 1.46465e-07 5.8406e-07 0.00110075 0.00110104 0.00110066 0.00110049 2.10231e-07 3.32653e-08 2.6932e-07 8.15443e-11 1.37172e-11 1.17949e-07 1.69918e-06 7.90812e-06 0.00110107 0.00110107 0.00109938 0.00109317 8.0621e-09 1.0536e-09 2.5712e-05 0.000130917 0.00110107 0.00110107 0.00107536 0.000970157 2.19914e-10 2.31066e-11 0.000375436 0.000863718 0.00110107 0.00110107 0.000725638 0.000237356 4.06575e-12 3.32819e-13 0.00103859 0.00109386 0.00110107 0.00110107 6.24872e-05 7.21331e-06 4.81602e-14 0.00109978 0.00110097 0.0011